/*--------------------------------*- C++ -*----------------------------------*\
| =========                 |                                                 |
| \\      /  F ield         | OpenFOAM: The Open Source CFD Toolbox           |
|  \\    /   O peration     | Version:  2.3.0                                 |
|   \\  /    A nd           | Web:      www.OpenFOAM.org                      |
|    \\/     M anipulation  |                                                 |
\*---------------------------------------------------------------------------*/
FoamFile
{
    version     2.0;
    format      ascii;
    class       volScalarField;
    location    "0.9";
    object      T;
}
// * * * * * * * * * * * * * * * * * * * * * * * * * * * * * * * * * * * * * //

dimensions      [0 0 0 1 0 0 0];

internalField   nonuniform List<scalar> 
2268
(
270
270
270
270
270
270.001
270
270
270
270
270
270
270
270
270
270
270
270
270
270
270
270
270
270
270
270.001
270.002
270.004
270.004
270.003
270.001
270
270
270
270
270
270
270
270
270
270
270
270
270
270.001
270
270
270
270.002
270.003
270
269.995
269.999
270.003
270.001
270
270
270
270
270
270
270
270
270
270
270
270.001
270.003
270.001
270
270.001
270.001
269.993
269.974
269.963
269.977
269.999
270.006
270.002
270
270
270
270
270
270
270
270
270
270.002
270.002
270.003
270.002
270
270.002
270
269.983
269.951
269.93
269.944
269.984
270.007
270.006
270.001
270.001
270.001
270.001
270
270
270
270
270.001
270.001
269.999
269.993
270.002
270
270.001
270
269.985
269.954
269.916
269.91
269.952
269.988
269.996
269.994
269.996
269.999
270.001
270.002
270.001
270.001
270.001
269.999
269.991
269.983
269.972
269.996
269.998
270.001
270.004
269.999
269.971
269.905
269.875
269.903
269.946
269.968
269.974
269.977
269.982
269.989
269.995
270
270.001
269.998
269.988
269.973
269.964
269.956
269.982
270.007
270.005
270.007
270.004
269.962
269.882
269.845
269.877
269.935
269.963
269.97
269.968
269.964
269.963
269.968
269.978
269.984
269.982
269.971
269.96
269.96
269.962
269.967
269.997
269.986
269.984
269.985
269.984
269.982
269.984
269.991
269.998
270.001
270
270
270
270
269.998
269.985
269.976
269.983
269.988
269.994
269.987
269.99
269.992
269.988
269.985
269.988
269.995
270.001
270
269.999
270.002
270.004
270.002
270.001
269.993
269.984
269.989
270.003
269.993
269.99
269.996
269.995
269.99
269.991
269.994
269.999
270.002
270.002
270.005
270.009
270.009
270.007
270.002
269.998
269.992
269.99
270.006
269.993
269.993
270
269.997
269.992
269.995
270.001
270.006
270.009
270.011
270.011
270.008
270.007
270.007
270.005
270.001
269.998
269.995
270.002
269.993
269.994
270.001
269.999
269.993
269.999
270.01
270.012
270.011
270.009
270.005
270.003
270.003
270.005
270.006
270.004
270.002
269.997
270.005
269.994
269.995
269.999
269.999
269.993
270.001
270.015
270.014
270.01
270.004
269.999
269.997
269.998
270
270.003
270.004
270.003
270.002
270.007
269.995
269.995
269.999
269.998
269.993
270.001
270.018
270.015
270.014
270.01
269.999
269.996
269.999
270.001
270
270
270.004
270.009
270.011
269.996
269.997
269.999
269.997
269.993
269.999
270.018
270.017
270.02
270.015
270.002
269.998
270.012
270.027
270.01
270.001
269.998
270.003
270.011
269.957
269.972
269.982
269.978
269.954
269.881
269.868
269.937
269.981
269.992
269.993
269.987
269.974
269.958
269.947
269.947
269.956
269.964
269.966
269.972
269.985
269.991
269.963
270.279
270.099
270.059
270.054
270.023
269.978
270.01
270.021
269.985
269.984
269.991
270
270.001
269.993
269.984
269.982
269.982
269.98
269.991
270.017
270.016
270.015
269.989
270.343
270.183
270.143
270.081
270.033
270.013
270
269.979
269.971
269.967
269.981
270.005
270.015
270.01
270.004
269.996
269.995
270.006
270.017
270.014
270.007
269.999
269.983
270.216
270.151
270.109
270.055
270.029
270.024
270.016
270.004
269.984
269.974
269.975
269.992
270.004
270
269.997
270.002
270.005
270.009
270.011
270.01
269.999
269.987
269.98
270.15
270.097
270.065
270.038
270.037
270.049
270.048
270.037
270.011
269.992
269.981
269.971
269.974
269.985
269.99
269.998
270.008
270.01
270.005
269.995
269.983
269.972
269.967
270.113
270.061
270.044
270.041
270.056
270.073
270.082
270.067
270.038
270.022
270.008
269.99
269.977
269.97
269.977
270.007
270.015
270.009
269.984
269.957
269.959
269.962
269.96
270.097
270.04
270.05
270.064
270.087
270.119
270.126
270.11
270.081
270.05
270.027
270.018
270.008
269.996
269.994
270.005
270.014
269.982
269.964
269.941
269.9
269.854
269.86
270.083
270.089
270.292
270.339
270.104
270.168
270.173
270.17
270.151
270.1
270.051
270.032
270.026
270.026
270.023
270.016
270.018
270.019
270.008
269.969
269.908
269.837
269.808
270.071
270.239
270.59
270.488
270.129
270.172
270.232
270.324
270.383
270.282
270.121
270.041
270.004
269.996
270.017
270.03
270.019
270.005
270
270.081
270.066
269.982
269.901
270.055
270.478
270.785
270.514
270.107
270.101
270.275
270.641
271.022
270.879
270.486
270.22
270.095
270.004
269.942
269.908
269.862
269.787
269.745
269.983
270.295
270.343
270.309
270.045
270.682
270.896
270.5
270.112
270.315
271.045
271.923
272.225
271.995
271.411
270.776
270.416
270.25
270.122
270.015
269.896
269.758
269.632
269.554
269.882
270.847
271.88
270.05
270.735
270.971
270.499
270.292
270.83
271.642
272.269
272.784
273.157
273.008
272.208
271.293
270.775
270.553
270.413
270.275
270.055
269.795
269.522
269.411
269.764
271.194
270.069
270.496
271.016
270.561
270.612
271.037
271.222
271.413
271.973
272.845
273.735
274.022
273.296
272.101
271.365
271.094
270.995
270.879
270.43
269.954
269.728
269.729
270.457
270.165
270.826
271.048
270.701
270.794
270.734
270.507
270.469
270.712
271.384
272.621
274.162
275.075
274.638
273.408
272.509
272.219
272.134
271.97
271.24
270.63
270.236
270.587
270.509
271.071
271.084
270.847
270.752
270.465
270.304
270.224
270.136
270.236
270.864
272.46
274.776
276.416
276.493
275.663
274.914
274.546
274.275
273.907
273.349
272.056
272.264
270.714
271.129
271.116
270.916
270.668
270.461
270.462
270.421
270.302
270.121
270.036
270.631
272.74
275.9
278.308
279.209
279.167
278.798
278.273
277.501
276.518
275.518
274.818
270.97
271.152
271.154
270.928
270.634
270.54
270.521
270.443
270.424
270.349
270.134
269.943
270.835
273.795
277.75
280.977
282.882
283.669
283.571
282.708
281.296
279.724
278.581
271.075
271.183
271.213
270.996
270.665
270.594
270.501
270.393
270.378
270.397
270.336
270.004
269.984
271.823
275.8
280.502
284.492
287.146
288.345
288.157
286.926
285.256
283.895
270.688
271.01
271.194
271.127
270.838
270.682
270.554
270.468
270.424
270.396
270.383
270.145
269.799
270.658
273.836
278.804
284.077
288.416
291.181
292.224
291.825
290.604
289.337
270.219
270.623
270.959
271.097
271.009
270.857
270.713
270.604
270.51
270.432
270.398
270.213
269.784
270.074
272.385
276.88
282.469
287.737
291.681
293.909
294.55
294.086
293.06
270.166
270.349
270.635
270.865
270.962
270.928
270.823
270.693
270.566
270.456
270.403
270.214
269.768
269.778
271.414
275.152
280.316
285.627
289.979
292.84
294.194
294.319
293.415
270.137
270.463
270.52
270.642
270.76
270.793
270.752
270.662
270.534
270.44
270.387
270.162
269.716
269.612
270.767
273.674
277.93
282.513
286.442
289.182
290.622
290.856
289.865
270.103
270.457
270.497
270.518
270.572
270.612
270.604
270.54
270.455
270.412
270.338
270.058
269.644
269.521
270.317
272.389
275.47
278.824
281.718
283.729
284.724
284.701
283.598
270.063
270.352
270.476
270.455
270.468
270.478
270.469
270.435
270.405
270.367
270.215
269.927
269.601
269.501
269.993
271.27
273.137
275.129
276.791
277.86
278.249
277.947
276.953
270.022
270.217
270.381
270.416
270.418
270.416
270.404
270.385
270.346
270.244
270.071
269.852
269.634
269.549
269.772
270.37
271.218
272.077
272.73
273.061
273.043
272.693
272.061
270.001
270.084
270.213
270.299
270.334
270.339
270.324
270.283
270.206
270.104
269.993
269.867
269.734
269.647
269.663
269.79
269.976
270.145
270.231
270.214
270.099
269.912
269.7
269.998
270.007
270.061
270.123
270.167
270.181
270.166
270.127
270.078
270.035
269.992
269.934
269.858
269.77
269.675
269.577
269.478
269.384
269.301
269.238
269.201
269.201
269.252
270
269.988
269.995
270.013
270.033
270.043
270.04
270.031
270.025
270.023
270.017
269.999
269.96
269.888
269.781
269.651
269.524
269.424
269.369
269.363
269.402
269.48
269.59
270.001
269.993
269.99
269.99
269.993
269.996
269.999
270.005
270.012
270.021
270.029
270.031
270.016
269.975
269.911
269.837
269.775
269.74
269.738
269.763
269.808
269.865
269.926
270.001
270
269.998
269.997
269.996
269.996
269.997
270
270.005
270.012
270.022
270.029
270.029
270.018
270
269.982
269.973
269.976
269.987
270.003
270.019
270.033
270.041
270.001
270.002
270.002
270.002
270.001
270
269.999
269.999
270
270.003
270.008
270.014
270.02
270.024
270.028
270.034
270.041
270.047
270.051
270.051
270.047
270.04
270.03
270.001
270.002
270.002
270.002
270.002
270.001
270
269.999
269.998
269.999
270
270.002
270.006
270.012
270.019
270.026
270.03
270.031
270.028
270.024
270.018
270.011
270.005
270.001
270.001
270.002
270.002
270.001
270.001
270
270
269.999
269.998
269.998
269.998
269.999
270.001
270.004
270.006
270.007
270.006
270.004
270.002
270
269.998
269.998
270.001
270.001
270.001
270.001
270.001
270.001
270
270
270
269.999
269.998
269.997
269.997
269.997
269.997
269.997
269.997
269.997
269.997
269.997
269.998
269.998
269.999
270.001
270.001
270.001
270.001
270
270
270
270
270
269.999
269.999
269.998
269.998
269.997
269.997
269.997
269.998
269.998
269.999
269.999
269.999
269.999
269.999
270.001
270.001
270.001
270
270
270
270
270
269.999
269.999
269.999
269.998
269.998
269.998
269.999
269.999
270
270
270
270
270
269.999
269.999
270.001
270.001
270.001
270
270
270
270
269.999
269.999
269.999
269.998
269.998
269.999
269.999
270
270
270
270
270
269.999
269.999
269.999
269.999
270
270.001
270.001
270.001
270.001
270
270
269.999
269.999
269.998
269.998
269.999
269.999
269.999
270
270
270
270
269.999
269.999
269.999
269.999
269.999
270
270.001
270.001
270.001
270.001
270
270
269.999
269.999
269.999
269.999
269.999
269.999
270
270
270
270
269.999
269.999
269.999
269.999
269.999
269.999
270.001
270.001
270.002
270.001
270.001
270
270
269.999
269.999
269.999
270
270
270
270
270
270
269.999
269.999
269.999
269.999
269.999
269.999
270
270.001
270.001
270.002
270.001
270.001
270
270
270
270
270
270
270
270
270
270
270
269.999
269.999
269.999
269.999
269.999
269.999
270
270.001
270.001
270.001
270.001
270.001
270
270
270
270
270
270
270
270.001
270
270
270
269.999
269.999
269.999
270
269.999
270
270
269.952
269.961
269.972
269.976
269.97
269.968
269.967
269.976
269.974
269.976
269.984
269.991
269.975
269.973
269.973
269.974
269.971
269.975
269.978
269.98
269.974
269.981
269.986
269.988
269.914
269.942
269.969
269.985
269.819
269.873
269.921
269.96
269.849
269.844
269.916
269.958
270.266
270.232
270.181
270.129
271.936
271.587
270.942
270.508
272.25
272.162
272.048
271.554
271.909
272.635
273.066
273.025
271.443
272.266
273.338
274.255
272.17
272.497
273.275
274.534
274.636
274.606
275.074
275.878
278.151
278.238
278.609
279.31
283.244
283.129
283.277
283.701
288.588
288.273
288.047
287.899
292.175
291.529
290.763
289.855
292.301
291.277
289.98
288.422
288.545
287.308
285.784
284.019
282.274
281.113
279.761
278.277
275.92
275.099
274.211
273.298
271.496
271.102
270.719
270.363
269.551
269.478
269.432
269.416
269.317
269.379
269.455
269.541
269.683
269.746
269.808
269.868
269.968
269.991
270.009
270.022
270.043
270.04
270.036
270.03
270.022
270.016
270.011
270.006
270.001
269.999
269.998
269.998
269.998
269.998
269.998
269.998
269.999
269.999
269.999
269.999
270
270
270
270
269.999
270
270
270
270
270
270
270
270
270
270
270
270
270
270
270
270
270
270.001
270.001
270
270.001
270.001
270.001
270.001
270.001
270.001
270.001
269.994
270.001
269.999
269.995
269.994
270.004
270.021
270.021
270.018
270.007
270
270.001
270.042
270.057
270.044
270.027
270.011
270.007
270.002
269.988
270
269.999
269.994
270
270.012
270.015
270.005
270.002
270
269.997
270.003
270.051
270.053
270.045
270.041
270.047
270.049
270.024
269.992
269.992
269.996
270
270.008
270.009
270.006
270.003
269.998
269.996
270
270.017
270.054
270.053
270.05
270.03
270.03
270.067
270.183
269.982
269.993
270
270.007
270.012
270.01
270.006
270.001
270
270.003
270.014
270.036
270.058
270.068
270.084
270.059
270.029
270.029
270.179
269.985
269.995
270.005
270.012
270.011
270.012
270.018
270.041
270.049
270.037
270.038
270.05
270.055
270.082
270.09
270.058
270.027
270.013
270.186
269.99
269.998
270.008
270.017
270.021
270.033
270.051
270.076
270.077
270.063
270.059
270.065
270.076
270.094
270.078
270.047
270.02
270.003
270.137
269.993
269.998
270.009
270.022
270.034
270.065
270.106
270.135
270.122
270.092
270.088
270.095
270.103
270.093
270.063
270.036
270.014
269.999
270.226
269.989
269.998
270.007
270.035
270.041
270.062
270.108
270.136
270.119
270.097
270.099
270.103
270.094
270.077
270.049
270.025
270.009
269.994
270.443
269.981
270.001
270.004
270.022
270.041
270.053
270.08
270.098
270.095
270.094
270.104
270.096
270.075
270.061
270.037
270.015
270.004
269.987
270.596
270.015
269.985
270.008
270.01
270.032
270.044
270.057
270.062
270.052
270.048
270.058
270.056
270.059
270.052
270.027
270.005
269.997
269.993
270.671
270.165
269.986
270.004
270.012
270.016
270.028
270.036
270.04
270.033
270.033
270.036
270.051
270.056
270.04
270.009
269.99
269.997
270.014
270.753
270.723
270.137
269.988
270.008
270.014
270.019
270.024
270.025
270.026
270.033
270.043
270.051
270.042
270.015
269.983
269.983
270.012
270.044
270.835
272.142
270.862
270.07
269.993
270.005
270.01
270.014
270.006
270.009
270.032
270.048
270.032
269.999
269.961
269.947
270.001
270.031
270.078
270.902
274.379
272.764
270.838
270.13
269.989
269.996
269.996
269.987
269.96
269.992
269.998
269.953
269.91
269.927
269.965
270.043
270.048
270.118
270.95
276.295
276.14
272.888
270.532
270.093
270.038
270.014
269.973
269.92
269.887
269.876
269.878
269.895
269.938
269.987
270.073
270.058
270.166
270.975
277.948
278.766
275.949
272.479
270.759
270.12
269.936
269.862
269.81
269.786
269.792
269.825
269.881
269.948
270.012
270.102
270.063
270.235
270.992
280.779
280.959
278.13
274.211
271.503
270.233
269.802
269.697
269.688
269.712
269.762
269.836
269.918
269.988
270.047
270.13
270.064
270.358
271.013
284.271
282.903
279.055
274.715
271.716
270.247
269.725
269.623
269.665
269.745
269.83
269.909
269.976
270.029
270.082
270.153
270.068
270.581
271.052
286.958
283.603
278.771
274.336
271.505
270.18
269.738
269.683
269.753
269.842
269.919
269.981
270.033
270.074
270.12
270.168
270.094
270.878
271.107
287.356
282.496
277.384
273.416
271.102
270.095
269.807
269.808
269.879
269.945
270
270.049
270.087
270.112
270.149
270.17
270.173
271.041
271.169
285.017
279.82
275.294
272.216
270.608
270
269.882
269.919
269.968
270.013
270.062
270.1
270.119
270.128
270.164
270.162
270.305
270.935
271.232
280.679
276.296
272.988
271.03
270.17
269.939
269.945
269.981
270.011
270.06
270.106
270.12
270.116
270.119
270.165
270.156
270.48
270.832
271.287
275.791
272.926
271.077
270.193
269.935
269.942
269.986
270.001
270.039
270.102
270.119
270.098
270.08
270.097
270.164
270.17
270.724
270.884
271.338
271.959
270.652
270.013
269.854
269.907
269.98
270
270.005
270.074
270.124
270.09
270.052
270.048
270.092
270.167
270.24
271.03
270.966
271.375
269.958
269.712
269.733
269.859
269.964
270.004
269.995
270.013
270.104
270.112
270.039
270.026
270.051
270.113
270.159
270.395
271.074
270.918
271.397
269.481
269.655
269.835
269.955
270.003
270.004
269.988
270.023
270.113
270.081
270.007
270.036
270.078
270.124
270.237
270.566
270.703
270.793
271.425
269.693
269.866
269.969
270.006
270.008
269.998
269.987
270.025
270.098
270.059
270.002
270.047
270.096
270.189
270.393
270.553
270.351
270.788
271.468
269.943
270
270.014
270.009
270.003
269.995
269.989
270.015
270.069
270.053
270.006
270.039
270.126
270.242
270.323
270.24
270.265
270.946
271.519
270.028
270.02
270.008
270.002
270
269.997
269.991
270.002
270.032
270.05
270.023
270.022
270.087
270.157
270.181
270.174
270.39
271.183
271.57
270.018
270.005
270
270
270.001
269.999
269.996
269.993
269.991
270.03
270.066
270.039
270.054
270.095
270.137
270.259
270.625
271.45
271.623
270.001
269.998
269.998
270
270.001
270.001
270.001
269.987
269.959
270.005
270.127
270.158
270.151
270.181
270.233
270.462
270.95
271.719
271.679
269.997
269.998
269.999
270
270
270.003
270.003
269.976
269.952
270.05
270.242
270.365
270.385
270.399
270.473
270.833
271.361
271.946
271.734
269.999
269.999
270
270
270
270.005
269.996
269.96
270.004
270.218
270.458
270.572
270.608
270.657
270.829
271.321
271.755
272.078
271.786
270
270
270
269.999
270.002
270.004
269.977
269.976
270.155
270.468
270.654
270.673
270.737
270.932
271.268
271.779
272.002
272.109
271.825
270
270
270
270
270.004
269.994
269.968
270.077
270.396
270.677
270.702
270.655
270.873
271.28
271.669
272.049
272.057
272.095
271.814
269.999
270
270
270.001
270.004
269.976
270.013
270.286
270.642
270.759
270.638
270.636
271.065
271.592
271.888
272.14
271.997
272.102
271.747
270
270
270
270.004
269.995
269.97
270.148
270.548
270.796
270.731
270.571
270.683
271.254
271.764
271.947
272.162
271.919
272.142
271.632
270
270.001
270
270.006
269.978
270.003
270.354
270.764
270.832
270.667
270.547
270.761
271.39
271.827
271.952
272.176
271.869
272.179
271.516
270.001
270.001
270.001
270.004
269.963
270.082
270.563
270.875
270.796
270.619
270.552
270.831
271.477
271.85
271.955
272.188
271.848
272.194
271.462
270.001
270.001
270.001
269.999
269.959
270.177
270.712
270.9
270.753
270.596
270.561
270.88
271.535
271.866
271.961
272.195
271.841
272.196
271.46
270.001
270
270.001
269.995
269.964
270.25
270.79
270.895
270.727
270.586
270.567
270.911
271.571
271.875
271.963
272.199
271.835
272.199
271.465
270.001
270
270
269.993
269.968
270.282
270.818
270.889
270.718
270.582
270.57
270.925
271.586
271.878
271.964
272.201
271.832
272.201
271.465
)
;

boundaryField
{
    leftWall
    {
        type            zeroGradient;
    }
    rightWall
    {
        type            zeroGradient;
    }
    lowerWall
    {
        type            zeroGradient;
    }
    atmosphere
    {
        type            zeroGradient;
    }
    defaultFaces
    {
        type            empty;
    }
}


// ************************************************************************* //
