/*--------------------------------*- C++ -*----------------------------------*\
| =========                 |                                                 |
| \\      /  F ield         | OpenFOAM: The Open Source CFD Toolbox           |
|  \\    /   O peration     | Version:  2.3.0                                 |
|   \\  /    A nd           | Web:      www.OpenFOAM.org                      |
|    \\/     M anipulation  |                                                 |
\*---------------------------------------------------------------------------*/
FoamFile
{
    version     2.0;
    format      ascii;
    class       volScalarField;
    location    "0.7";
    object      T;
}
// * * * * * * * * * * * * * * * * * * * * * * * * * * * * * * * * * * * * * //

dimensions      [0 0 0 1 0 0 0];

internalField   nonuniform List<scalar> 
2268
(
270
270
270
270
270
270
270
270
270
270
270
270
270
270
270
270
270
270
270
270
270
270
270
270
270
270
270
270
270
270.001
270.001
270
270
270
270
270
270
270
270
270
270
270
270
270
270
270
270
270
270
270
270
270.001
270.004
270.006
270.005
270.001
270
270
270
270
270
270
270
270
270
270
270
270
270
270
270
270
270
270.001
270.003
270.003
269.999
270.005
270.005
270.001
270
270
270
270
270
270
270
270
270
270
270
270
270
270
270
270
270.001
270.005
269.992
269.965
269.973
270.001
270.003
270
270
270
270
270
270
270
270
270
270
270
270
270
270
270.001
270.001
270
269.993
269.97
269.921
269.904
269.963
270.001
270.003
270
270
270
270
270
270
270
270
270
270
270
270.002
270.003
269.993
269.979
269.963
269.951
269.932
269.882
269.833
269.885
269.974
270.003
270.004
270.002
270.001
270
270
270
270
270
270
270.001
270.001
269.965
269.913
269.893
269.894
269.902
269.913
269.914
269.874
269.797
269.796
269.893
269.972
270
270.006
270.007
270.007
270.006
270.004
270.003
270.002
270.003
270.004
270.002
270.005
270.003
270
269.999
269.998
269.999
270
270.004
269.996
269.989
269.99
269.994
269.996
269.996
269.994
269.99
269.985
269.981
269.991
270.004
270
269.996
269.992
269.988
269.986
269.988
269.995
269.989
269.995
270.015
270.033
270.037
270.032
270.022
270.008
269.991
269.972
269.965
270.004
270.001
269.998
269.992
269.985
269.979
269.983
269.991
269.997
270.028
270.073
270.099
270.092
270.073
270.051
270.031
270.008
269.981
269.943
270.004
270.002
270
269.993
269.985
269.977
269.981
269.992
270.014
270.065
270.115
270.145
270.194
270.155
270.102
270.06
270.032
270.005
269.968
270.005
270.004
269.999
269.991
269.984
269.976
269.979
269.996
270.035
270.106
270.166
270.248
270.324
270.295
270.217
270.118
270.055
270.024
269.999
270.005
270.005
269.996
269.988
269.984
269.976
269.977
270.003
270.073
270.164
270.27
270.474
270.566
270.492
270.366
270.231
270.092
270.035
270.016
270.003
270.001
269.991
269.99
269.988
269.978
269.975
270.013
270.14
270.254
270.433
270.719
270.682
270.482
270.332
270.34
270.229
270.047
270.025
270.003
269.993
269.989
269.997
269.997
269.985
269.973
270.017
270.2
270.358
270.608
270.818
270.565
270.327
270.195
270.169
270.272
270.067
270.03
270.096
270.307
270.39
270.339
270.236
270.178
270.219
270.161
270.009
269.892
269.856
269.869
269.898
269.923
269.941
269.962
269.982
269.991
269.991
269.992
269.994
269.989
269.992
271.73
271.41
271.453
271.45
271.354
271.128
270.834
270.617
270.459
270.331
270.213
270.099
270.033
269.985
269.933
269.865
269.845
269.875
269.916
269.924
269.926
269.93
269.943
272.306
271.386
270.581
270.309
270.334
270.311
270.292
270.163
270.205
270.359
270.468
270.445
270.355
270.273
270.193
270.155
270.154
270.15
270.099
270.026
269.959
269.946
269.964
272.413
271.954
271.587
271.331
270.935
270.757
270.664
270.367
269.986
269.734
269.74
269.854
269.879
269.901
269.938
269.971
270.007
270.04
270.077
270.107
270.11
270.089
270.071
271.895
271.924
271.495
271.545
271.896
272.022
272.252
273.204
273.271
271.096
269.731
269.921
270.066
270.067
270.053
270.017
270.001
270.02
270.034
270.038
270.052
270.093
270.099
270.897
271.286
270.951
270.612
270.838
271.405
271.668
274.194
274.981
272.65
270.644
270.103
270.225
270.234
270.076
270.076
270.054
270.023
270.019
270.033
270.028
270.029
270.049
270.155
270.531
270.366
270.04
269.922
270.289
271.014
274.797
275.777
272.49
270.437
270.418
271.05
271.1
270.493
270.307
270.394
270.028
269.983
270.001
270.001
269.999
270.003
269.958
270.078
270.019
269.898
269.646
269.684
271.099
275.8
277.143
273.253
270.239
270.329
272.055
272.983
272.204
271.415
270.83
270.174
269.984
270.014
270.011
270
269.993
269.979
269.971
269.961
269.915
269.598
269.505
271.472
276.562
278.964
276.111
272.43
271.682
273.904
275.795
275.08
273.37
271.816
270.479
269.99
270.033
270.077
270.053
270.012
270.001
269.995
270.006
269.942
269.59
269.442
271.458
276.416
280.221
279.883
277.325
276.124
277.714
279.362
278.303
275.697
273.021
270.896
270.043
270.023
270.08
270.087
270.044
270.003
270.009
270.031
269.966
269.62
269.368
270.928
275.288
280.146
282.679
282.748
282.322
282.978
283.416
281.55
277.919
273.994
271.125
270.072
270.038
270.083
270.086
270.044
270
270.006
270.029
269.996
269.705
269.328
270.185
273.591
278.76
283.524
286.525
287.824
288.19
287.538
284.821
280
274.637
271.077
270.04
270.063
270.09
270.124
270.155
269.999
270.002
270.019
270.023
269.821
269.381
269.572
271.864
276.644
282.642
288.012
291.316
292.259
291.324
288.199
282.311
275.38
270.977
269.962
270.096
270.107
270.12
270.179
270
270
270.01
270.034
269.929
269.524
269.26
270.503
274.426
280.712
287.558
292.634
294.742
294.401
291.618
285.265
276.877
271.197
269.881
270.116
270.093
270.057
270.093
270
270
270.004
270.03
270
269.704
269.245
269.665
272.49
278.253
285.604
291.93
295.422
296.32
294.684
288.876
279.611
272.189
269.879
270.088
270.135
270.041
270.049
270
270
270.001
270.02
270.031
269.863
269.42
269.318
271.008
275.602
282.482
289.33
294.07
296.51
296.648
292.545
283.584
274.444
270.225
269.968
270.199
270.1
270.036
270.001
270.001
270
270.01
270.032
269.968
269.656
269.333
270.06
273.128
278.68
285.154
290.617
294.475
296.615
295.122
288.058
278.259
271.652
269.896
270.068
270.166
270.113
270.001
270.001
270
270.003
270.021
270.015
269.854
269.538
269.637
271.229
274.952
280.168
285.493
290.171
293.973
295.304
291.506
283.025
274.779
270.654
269.858
270.002
270.144
270.001
270.001
270.001
270.001
270.009
270.023
269.973
269.774
269.607
270.124
272.05
275.469
279.745
284.292
288.866
292.377
292.246
287.01
279.191
273.091
270.369
269.8
269.93
270.001
270.002
270.002
270.001
270.002
270.014
270.018
269.942
269.763
269.729
270.345
272.004
274.689
278.188
282.395
286.75
289.384
288.099
282.972
276.821
272.428
270.387
269.863
270.001
270.002
270.002
270.001
270
270.005
270.021
270.017
269.925
269.752
269.705
270.13
271.29
273.3
276.254
280.029
283.656
285.306
283.747
279.728
275.354
272.204
270.632
270.001
270.002
270.002
270.002
270
270
270.01
270.027
270.011
269.896
269.692
269.553
269.724
270.435
271.896
274.245
277.215
279.82
280.789
279.6
276.959
274.116
272.036
270.001
270.002
270.002
270.002
270.001
269.999
270.001
270.014
270.027
269.996
269.867
269.652
269.454
269.438
269.795
270.721
272.301
274.252
275.878
276.466
275.818
274.348
272.767
270.001
270.002
270.002
270.002
270.001
270
269.999
270.002
270.014
270.022
269.992
269.887
269.708
269.509
269.381
269.454
269.873
270.687
271.718
272.588
272.948
272.704
272.054
270.001
270.001
270.002
270.001
270.001
270.001
269.999
269.999
270.002
270.013
270.025
270.014
269.955
269.836
269.669
269.494
269.388
269.448
269.72
270.135
270.527
270.74
270.707
270.002
270.001
270.001
270.001
270.001
270.001
270
269.999
269.998
270.002
270.014
270.03
270.039
270.02
269.957
269.842
269.688
269.539
269.456
269.483
269.606
269.767
269.89
270.001
270.001
270.001
270.001
270.001
270
270.001
270
269.999
269.998
270.001
270.011
270.027
270.042
270.046
270.026
269.97
269.883
269.786
269.714
269.693
269.727
269.793
270.001
270.001
270.001
270
270
270
270.001
270
270
269.999
269.998
269.999
270.004
270.014
270.027
270.039
270.044
270.034
270.008
269.975
269.947
269.934
269.942
270.001
270.001
270.001
270
270
270
270
270
270
269.999
269.999
269.998
269.997
269.998
270.002
270.01
270.021
270.032
270.039
270.039
270.033
270.024
270.015
270.001
270.001
270
270
270
270
270
270
269.999
269.999
269.999
269.999
269.999
269.997
269.997
269.997
270
270.005
270.011
270.016
270.017
270.016
270.012
270
270.001
270
270
270
270
270
269.999
269.999
269.999
269.999
270
270
270
269.999
269.998
269.998
269.997
269.998
269.998
269.999
270
270
270
270.001
270.001
270
270
270
270
269.999
269.998
269.998
269.999
269.999
270
270
270.001
270
270
269.999
269.998
269.997
269.997
269.997
269.998
270
270.001
270.001
270.001
270.001
270
269.999
269.999
269.998
269.999
269.999
269.999
270
270
270
270
270
270
270
269.999
269.999
269.999
269.999
270
270.002
270.002
270.001
270
270
269.999
269.999
269.999
269.999
269.999
269.999
270
270
270
270
270
270
270
269.999
269.999
269.999
269.999
270
270.002
270.002
270.001
270
270
269.999
269.999
269.999
269.999
270
270
270
270
270
270
270
269.999
269.999
269.999
269.999
269.999
269.999
270.001
270.002
270.002
270.001
270
270
269.999
270
270
270
270
270
270
270
270
270
269.999
269.999
269.999
269.999
269.999
269.999
269.999
270.002
270.002
270.001
270.001
270
270
270
270
270
270
270
270.001
270.001
270
270
269.999
269.999
269.999
269.999
269.999
269.999
269.999
269.999
270.001
270.001
270.001
270.001
270
270
270
270
270
270
270
270.001
270.001
270
270
269.999
269.999
269.999
269.999
269.999
269.999
269.999
270
270.001
270.001
270.001
270.001
270.001
270
270
270
270
270
270.001
270.001
270.001
270
270
269.999
269.999
269.999
269.999
269.999
269.999
269.999
270
270.001
270.001
270.001
270.001
270.001
270
270
270
270
270
270.001
270.001
270.001
270
270
269.999
269.999
269.999
269.999
269.999
269.999
270
270
270.001
270.001
270.001
270.001
270.001
270
270
270
270
270
270.001
270.001
270
270
270
270
269.999
270
270
270
269.999
270
270
270.001
270.001
270.001
270.001
270
270
270
270
270
270
270
270
270
270
270
270
270
270
270
270
269.999
270
270
269.994
269.994
269.992
269.99
269.954
269.958
269.963
269.971
269.975
269.988
270.011
270.041
270.099
270.116
270.11
270.108
270.09
270.079
270.063
270.036
270.069
270.075
270.063
270.035
270.022
270.042
270.054
270.043
269.994
270.006
270.023
270.034
269.992
269.997
270.014
270.029
269.988
269.975
269.982
269.997
270.014
269.991
269.982
269.982
270.113
270.066
270.026
270.003
270.264
270.218
270.16
270.116
270.24
270.29
270.264
270.255
270.134
270.182
270.161
270.159
270.044
270.069
270.063
270.052
270.067
270.069
270.128
270.024
270.149
270.137
270.195
270.219
270.088
270.182
270.263
270.31
269.835
269.95
270.092
270.232
270.014
269.891
269.896
269.977
270.917
270.455
270.163
269.994
271.726
271.163
270.707
270.343
271.515
271.151
270.807
270.493
270.611
270.506
270.385
270.257
269.957
269.982
269.996
270
269.846
269.881
269.913
269.943
269.952
269.962
269.972
269.983
270.01
270.008
270.006
270.004
270.008
270.006
270.004
270.002
269.999
269.999
269.999
269.999
269.998
269.998
269.999
269.999
269.999
269.999
269.999
270
269.999
270
270
270
270
270
270
270
270
269.999
269.999
269.999
270
270
270
269.999
270
270
270
270
270
270
270
270.001
270
270
270.001
270.001
270
270
270.001
270.001
270.001
270
270.001
270.001
269.987
269.987
270.001
270.007
270.01
269.989
269.973
270.015
270.32
270.465
270.658
270.574
270.287
270.143
270.073
270.06
270.071
270.085
270.032
269.989
270.018
270.029
269.994
269.997
269.99
269.979
270.001
270.386
270.424
270.543
270.237
270.11
270.041
270.016
270.013
270.01
270.038
270.03
270.081
270.13
270.027
270.014
270.014
269.995
269.991
269.989
270.079
270.24
270.328
270.137
270.05
270.013
270.01
270.013
270.013
270.021
270.029
270.097
270.142
270.079
270.034
270.074
270.032
269.996
269.987
270.005
270.086
270.185
270.066
270.014
270.004
270.005
270.01
270.013
270.016
270.027
270.016
270.045
270.086
270.076
270.096
270.087
270.002
269.993
269.99
270.016
270.05
270.019
270.004
269.998
270.001
270.007
270.013
270.013
270.025
269.996
269.994
270.023
270.052
270.077
270.101
270.023
270
269.988
269.997
270.009
270.012
269.999
269.996
269.999
270.006
270.012
270.012
270.022
270.009
270.005
270.03
270.051
270.076
270.1
270.057
269.996
269.988
269.993
270.006
270.008
270.003
269.997
269.999
270.008
270.019
270.027
270.018
270.019
270.002
270.029
270.048
270.052
270.04
270.014
269.99
269.992
270.004
270.02
270.008
270.015
270
269.997
270.006
270.01
270.015
270.012
270.026
269.999
270.002
270.001
269.998
269.996
269.993
269.994
270.015
270.023
270.019
270.027
270.031
270.008
269.995
269.999
270.003
270.004
270.006
270.028
270.064
270.033
270.022
270.02
270.021
270.026
270.026
270.033
270.028
270.019
270.061
270.057
270.027
270.002
269.994
269.998
270
270.002
269.99
270.007
270.018
270.016
270.007
270.007
270.014
270.019
270.02
270.026
270.038
270.097
270.095
270.065
270.029
270.002
269.998
269.998
269.999
269.983
269.97
269.976
269.99
270.011
270.032
270.045
270.027
270.023
270.058
270.079
270.127
270.127
270.114
270.084
270.047
270.011
269.999
269.994
270.064
270.019
270.024
270.074
270.171
270.153
270.104
270.085
270.092
270.118
270.12
270.142
270.13
270.127
270.114
270.082
270.042
270.01
269.991
270.247
270.231
270.215
270.177
270.133
270.121
270.109
270.109
270.141
270.157
270.134
270.127
270.118
270.11
270.115
270.117
270.09
270.037
269.999
270.161
270.167
270.175
270.177
270.167
270.141
270.117
270.123
270.137
270.142
270.14
270.142
270.125
270.096
270.085
270.101
270.136
270.11
270.033
270.042
270.056
270.086
270.128
270.157
270.162
270.151
270.143
270.146
270.155
270.164
270.154
270.125
270.093
270.07
270.048
270.083
270.133
270.027
270.017
270.038
270.021
270.019
270.043
270.083
270.124
270.15
270.156
270.151
270.133
270.105
270.079
270.063
270.059
270.043
270.014
270.255
270.029
270.235
270.208
270.197
270.095
270.028
269.99
269.97
269.971
269.99
270.013
270.026
270.026
270.026
270.027
270.038
270.041
270.015
270.479
270.032
270.438
270.463
270.377
270.209
270.06
269.984
269.954
269.95
269.958
269.972
269.988
270.003
270.015
270.023
270.034
270.035
270.019
270.577
270.028
270.45
270.556
270.415
270.192
270.013
269.914
269.884
269.903
269.946
269.987
270.014
270.026
270.031
270.032
270.044
270.034
270.033
270.598
270.02
270.171
270.259
270.148
269.977
269.85
269.795
269.814
269.881
269.953
270.002
270.022
270.029
270.036
270.043
270.059
270.034
270.063
270.565
270.009
269.928
269.88
269.803
269.724
269.685
269.714
269.799
269.899
269.972
270.007
270.02
270.033
270.054
270.067
270.078
270.028
270.104
270.818
270.008
269.994
269.752
269.644
269.615
269.655
269.749
269.86
269.947
269.99
270.006
270.024
270.057
270.093
270.105
270.1
270.017
270.173
271.1
270.005
270.114
269.82
269.709
269.715
269.786
269.877
269.95
269.985
269.997
270.016
270.057
270.11
270.15
270.149
270.118
270.002
270.295
271.288
270.004
270.071
269.92
269.878
269.9
269.945
269.982
269.996
269.995
270.011
270.06
270.123
270.178
270.205
270.184
270.122
269.993
270.481
271.426
270.002
269.991
269.985
269.993
270.006
270.012
270.008
269.995
270.006
270.065
270.139
270.191
270.221
270.228
270.195
270.106
270.01
270.715
271.56
270
269.98
270.008
270.017
270.016
270.008
269.994
269.997
270.062
270.154
270.196
270.194
270.197
270.202
270.175
270.069
270.084
270.959
271.667
269.997
269.997
270.005
270.006
270.003
269.994
269.987
270.038
270.155
270.21
270.167
270.117
270.121
270.146
270.135
270.016
270.247
271.136
271.715
269.992
270.002
270
270
269.998
269.986
269.998
270.105
270.222
270.189
270.082
270.035
270.061
270.098
270.086
269.969
270.444
271.222
271.709
269.981
270
270
270.001
269.994
269.983
270.019
270.147
270.234
270.141
270.029
270.012
270.046
270.065
270.021
270.032
270.516
271.259
271.657
269.964
270
270.002
270.001
269.991
269.984
270.023
270.134
270.217
270.132
270.031
270.015
270.034
270.025
270.028
270.23
270.492
271.305
271.574
269.949
270
270.002
270.001
269.993
269.986
270.005
270.082
270.183
270.153
270.055
270.007
270.005
270.03
270.131
270.3
270.51
271.4
271.384
269.966
270
270.001
270.002
269.998
269.99
269.988
270.021
270.112
270.157
270.1
270.028
270.009
270.067
270.217
270.318
270.615
271.542
270.886
270.112
270
270.001
270.001
270.001
269.997
269.989
269.981
270.014
270.098
270.145
270.117
270.092
270.139
270.263
270.385
270.806
271.681
270.473
270.603
270
270
270.001
270.002
270.003
269.998
269.969
269.948
270.033
270.172
270.241
270.25
270.295
270.38
270.544
271.08
271.817
270.789
271.071
269.999
270
270
270.001
270.006
269.998
269.959
269.971
270.134
270.334
270.438
270.473
270.493
270.554
270.85
271.455
271.918
271.592
271.196
270
270
269.999
270.003
270.005
269.979
269.957
270.113
270.434
270.646
270.688
270.672
270.664
270.816
271.303
271.845
271.917
272.423
271.149
270
270.001
270
270.005
269.995
269.959
270.04
270.383
270.721
270.793
270.722
270.691
270.835
271.219
271.732
272.073
271.872
272.385
271.086
270.001
270
270
270.007
269.975
269.982
270.263
270.681
270.827
270.703
270.579
270.676
271.148
271.648
271.935
272.145
271.886
272.111
271.228
270
270
270.001
270.003
269.957
270.085
270.56
270.864
270.785
270.601
270.531
270.809
271.48
271.866
271.959
272.189
271.895
272.103
271.533
270
270
270.001
269.997
269.957
270.227
270.782
270.9
270.723
270.574
270.558
270.924
271.611
271.892
271.958
272.22
271.848
272.18
271.695
270
270
270.001
269.993
269.966
270.312
270.861
270.885
270.702
270.573
270.569
270.95
271.632
271.889
271.964
272.224
271.814
272.235
271.505
)
;

boundaryField
{
    leftWall
    {
        type            zeroGradient;
    }
    rightWall
    {
        type            zeroGradient;
    }
    lowerWall
    {
        type            zeroGradient;
    }
    atmosphere
    {
        type            zeroGradient;
    }
    defaultFaces
    {
        type            empty;
    }
}


// ************************************************************************* //
