/*--------------------------------*- C++ -*----------------------------------*\
| =========                 |                                                 |
| \\      /  F ield         | OpenFOAM: The Open Source CFD Toolbox           |
|  \\    /   O peration     | Version:  2.3.0                                 |
|   \\  /    A nd           | Web:      www.OpenFOAM.org                      |
|    \\/     M anipulation  |                                                 |
\*---------------------------------------------------------------------------*/
FoamFile
{
    version     2.0;
    format      ascii;
    class       volScalarField;
    location    "0.4";
    object      T;
}
// * * * * * * * * * * * * * * * * * * * * * * * * * * * * * * * * * * * * * //

dimensions      [0 0 0 1 0 0 0];

internalField   nonuniform List<scalar> 
2268
(
270
270
270
270
270
270
270
270
270
270
270
270
270
270
270
270
270
270
270
270
270
270
270
270
270
270
270
270
270
270
270
270
270
270
270
270
270
270
270
270
270
270
270
270
270
270
270
270
270
270
270
270
270
270
270
270
270
270
270
270
270
270
270
270
270
270
270
270
270
270
270
270
270
270
270
270
270
270
270
270
270
270
270
270
270
270
270
270
270
270
270
270
270
270
270
270
270
270
270
270
270
270
270
270
270
270
270
270
270
270
270
270
270
270
270
270
270
270
270
270
270
270
270
270
270
270
270
270
270
270
270
270
270
270
270
270
270
270
270
270
270
270
270
270
270
270
270
270
270
270.001
270.002
270.002
270.001
270.001
270
270
270
270
270
270
270
270
270
270
270
270
270
270
270
270
270.001
270.002
270.004
270.006
270.007
270.006
270.004
270.003
270.001
270
270
270
270
270
269.999
269.999
269.998
269.998
269.998
269.998
269.999
270
270
270.001
270.001
270.001
270.001
270.001
269.999
269.999
269.999
270
269.999
269.999
269.999
269.998
269.997
269.998
269.998
269.999
270
270
270.001
270.001
270.002
270.001
270
269.999
269.999
270
270
270
270
269.999
269.999
269.997
269.998
269.998
269.999
270
270
270.001
270.001
270.001
270.001
270.001
270
270
270
270
270
269.999
269.999
269.999
269.997
269.998
269.998
269.999
270
270
270.001
270.001
270.001
270.001
270.001
270.001
270
270
270
270
269.999
269.999
269.999
269.998
269.998
269.999
270
270
270.001
270.001
270.001
270.002
270.002
270.002
270.001
270
270
269.999
270
269.999
269.998
269.999
269.998
269.998
269.999
270
270
270.001
270.001
270
269.999
269.999
270
270.001
270.001
270
270
270
269.998
269.996
270.001
269.998
269.998
269.999
270
270.001
269.999
269.994
269.986
269.981
269.984
269.99
269.997
270.001
270.001
270
270
269.993
269.994
269.999
269.998
269.999
270
270.001
269.999
269.994
269.981
269.969
269.964
269.966
269.98
269.991
269.998
270.001
270.001
270
270
270
270
270
270
270
270
270.002
270.002
270
269.996
269.99
269.987
269.989
269.994
269.999
270.003
270.004
270.004
270.002
270.001
269.999
269.999
270
270
270
270
270
269.999
270.002
270.008
270.002
269.981
269.946
269.909
269.882
269.873
269.885
269.914
269.945
269.972
269.991
270.004
270.009
270.008
270.004
270
270
270
270
270
270.001
270
269.995
269.988
269.982
269.976
269.965
269.939
269.895
269.844
269.812
269.811
269.834
269.871
269.914
269.953
269.983
270.001
270
270
270.001
270
270.004
270.007
269.951
269.921
270.126
270.504
270.937
271.192
271.238
271.129
270.921
270.674
270.429
270.233
270.089
269.992
269.941
269.929
269.942
270.001
270.001
270.001
270.001
270.01
269.991
269.845
269.986
270.904
272.154
273.124
273.341
273.247
273.151
272.991
272.314
271.39
270.715
270.371
270.193
270.097
270.035
269.994
270.001
270.001
270.003
270.008
269.999
269.883
269.793
270.664
272.628
274.129
273.911
272.581
271.558
271.153
270.686
270.003
269.582
269.833
270.13
270.231
270.206
270.144
270.102
270
270.001
270.009
270.021
269.958
269.688
269.781
271.771
275.128
276.733
275.001
271.958
270.206
269.859
269.666
269.709
269.862
269.918
269.936
269.92
270.024
270.092
270.126
270
270
270.012
270.03
269.913
269.508
269.765
272.64
277.127
278.9
276.154
271.985
269.516
269.018
269.297
269.687
269.792
269.852
269.909
270.028
270.015
269.966
270.03
270
270
270.012
270.037
269.898
269.405
269.647
272.801
277.999
280.763
278.848
274.723
271.345
269.729
269.678
269.897
269.873
269.741
269.752
269.985
270.162
270.002
269.929
270
270
270.009
270.04
269.923
269.417
269.425
272.089
277.398
281.902
282.63
279.98
276.186
273.11
271.819
271.284
270.752
270.103
269.816
269.83
270.098
270.283
270.22
270
269.999
270.005
270.037
269.971
269.534
269.222
270.886
275.59
281.498
285.421
285.688
283.048
279.449
276.754
274.971
273.466
271.97
270.688
269.958
269.811
270.096
270.322
270
270
270.002
270.029
270.016
269.703
269.184
269.813
273.319
279.477
285.762
289.43
289.503
286.997
283.77
280.891
278.405
275.971
273.488
271.314
269.932
269.793
269.941
270
270
270
270.018
270.039
269.865
269.341
269.229
271.29
276.518
283.659
289.956
293.198
293.061
290.817
287.991
285.234
282.31
278.847
275.057
271.968
270.343
269.932
270
270
269.999
270.008
270.038
269.976
269.597
269.148
269.935
273.506
279.931
287.282
292.996
295.667
295.66
294.265
292.393
290.007
286.624
282.151
277.404
273.641
271.428
270
270
269.999
270.002
270.024
270.026
269.829
269.38
269.365
271.19
275.773
282.392
289.019
293.82
296.294
297.112
297.078
296.271
294.106
290.162
284.949
279.745
275.637
270
270
269.999
269.999
270.01
270.03
269.969
269.689
269.388
269.931
272.386
276.987
282.719
288.059
292.086
294.85
296.814
298.026
297.86
295.586
291.213
285.731
280.487
270
270
270
269.999
270.002
270.016
270.019
269.913
269.661
269.589
270.416
272.728
276.395
280.631
284.651
288.183
291.342
294.057
295.701
295.368
292.63
288.013
282.809
270
270
270
270
269.999
270.004
270.019
270.011
269.905
269.718
269.724
270.371
271.929
274.272
277.045
280.003
283.087
286.152
288.641
289.671
288.585
285.49
281.386
270
270.001
270.001
270.001
270
269.999
270.007
270.024
270.017
269.918
269.735
269.63
269.856
270.579
271.803
273.466
275.523
277.854
280.073
281.504
281.521
279.986
277.5
270
270.001
270.001
270.001
270
269.999
270
270.01
270.029
270.018
269.917
269.715
269.499
269.418
269.593
270.089
270.932
272.092
273.387
274.441
274.845
274.41
273.387
270.001
270.001
270.001
270.001
270.001
270
269.999
270
270.01
270.026
270.019
269.945
269.789
269.587
269.412
269.333
269.402
269.649
270.047
270.482
270.789
270.852
270.704
270.001
270.001
270.001
270.001
270.001
270.001
270
269.999
269.999
270.007
270.026
270.04
270.021
269.952
269.834
269.686
269.537
269.417
269.359
269.381
269.476
269.61
269.744
270.001
270.001
270.001
270.001
270.001
270.001
270.001
270
269.998
269.998
270.005
270.025
270.051
270.069
270.062
270.02
269.941
269.833
269.718
269.634
269.615
269.669
269.765
270.001
270
270
270.001
270.001
270.001
270.001
270.001
270.001
269.999
269.997
269.999
270.009
270.028
270.05
270.067
270.071
270.055
270.022
269.982
269.953
269.947
269.959
270.001
270
270
270
270
270.001
270.001
270.001
270.001
270.001
269.999
269.996
269.993
269.993
269.999
270.011
270.028
270.044
270.056
270.059
270.052
270.039
270.025
270
270
270
270
270
270
270.001
270.001
270
270.001
270.001
270.001
269.999
269.995
269.992
269.99
269.992
269.999
270.008
270.016
270.02
270.017
270.011
270
270
270
270
270
270
270
270
270
270
270
270.001
270.002
270.002
270.001
269.998
269.995
269.993
269.992
269.993
269.996
269.998
269.999
270
270
270
270
270
270
270
270
270
269.999
270
270
270.001
270.002
270.002
270.002
270.001
270
269.998
269.997
269.997
269.997
269.998
270
270
270
270
270
270
270
270
269.999
269.999
270
270
270
270
270.001
270.001
270.001
270.001
270.001
270.001
270
270
270
270
270
270
270
270
270
270
270
269.999
269.999
270
270
270
270
270
270
270
270
270
270
270
270
270
270
270.001
270
270
270
270
270
270
269.999
270
270
270
270.001
270.001
270
270
270
269.999
269.999
269.999
270
270
270
270
270.001
270
270
270
270
270
270
270
270
270
270
270.001
270
270
270
270
270
269.999
270
270
270
270
270
270.001
270
270
270
270
270
270
270
270
270
270
270.001
270
270
270
270
269.999
269.999
270
270
270
270
270
270
270
270
270
270
270
270
270
270
270
270
270.001
270
270
270
269.999
269.999
270
270
270
270
270
270
270
270
270
270
270
270
270
270
270
270
270.001
270.001
270
270
270
269.999
269.999
270
270
270
270
270
270.001
270
270
270
270
270
270
270
270
270
270
270.001
270.001
270
270
270
269.999
269.999
270
270
270
270
270
270.001
270
270
270
270
270
270
270
270
270
270
270.001
270
270
270
270
269.999
270
270
270
270
270
270
270
270
270
270
270
270
270
270
270
270
270
270.001
270
270
270
270
269.999
270
270
270
270
270
270
270
270
270
270
270
270
270
270
270
270
270
270
270
270
270
270
269.999
270
270
270
270
270
270
270
270
270
270
270
270
270
270
270
270
270
270
270
270
270
269.999
269.999
270
270
270
270
270
270
270
270
270
270
270
270
270
270
270
270
270
270
270
270
270
270
270
270
270
270
270
270
270
270
270
270
270
270
270
270
270
270
270
270
270
270
270
270
270
269.999
270
270
270
270
270.001
270
269.999
269.998
269.998
269.995
270.002
270
269.999
269.997
270.008
270.009
270.009
270.009
269.958
269.969
269.98
269.989
269.972
269.965
269.963
269.964
270.074
270.058
270.043
270.027
270.13
270.121
270.108
270.093
270.091
270.115
270.125
270.128
269.956
270.006
270.057
270.098
270.19
270.205
270.264
270.338
270.419
270.482
270.545
270.604
270.117
270.224
270.294
270.355
269.934
269.971
269.998
270.017
270.593
270.353
270.216
270.149
273.448
272.495
271.774
271.262
277.169
275.463
274.042
272.89
279.102
276.981
275.123
273.542
278.187
276.228
274.46
272.916
275.398
274.04
272.792
271.687
272.425
271.769
271.156
270.61
270.501
270.343
270.19
270.051
269.827
269.87
269.904
269.932
269.845
269.895
269.938
269.974
269.975
269.986
269.995
270.003
270.015
270.01
270.006
270.002
270.006
270.003
270.001
269.999
269.999
269.999
269.999
269.999
269.999
269.999
269.999
270
270
270
270
270
270
270
270
270
270
270
270
270
270
270
270
270
270
270
270
270
270
270
270
270
270
270
270
270
270
270
270
270
270
270
270
270
270
270
270
270.001
270
270
270.001
270.001
270
270
270.001
270.001
270
270
270.001
270.001
270
270
270.001
270.001
269.993
269.996
269.999
269.999
269.999
270
270
270.017
270.042
270.049
270.12
270.113
270.036
270.02
269.996
269.991
269.997
270
270
269.997
270.009
270.001
270.001
270.001
269.997
270.023
270.136
270.27
270.375
270.567
270.468
270.251
270.111
270.027
269.986
269.989
269.997
270
270.007
270.007
270.014
270.011
270.015
270.011
270.062
270.222
270.403
270.581
270.588
270.484
270.335
270.074
270.033
269.996
269.988
269.994
269.999
269.998
270.004
270.01
270.011
270.011
270.058
270.148
270.291
270.426
270.294
270.215
270.258
270.209
269.985
270.002
269.996
269.994
269.994
269.996
269.972
269.982
269.989
269.995
269.999
270.001
270.025
270.045
270.051
270.139
270.198
270.216
270.072
270.002
269.994
269.995
269.991
269.992
269.991
270.008
269.994
269.988
269.987
269.988
269.988
269.988
269.987
269.977
269.989
270.012
270.03
270.029
270.02
270.008
269.997
269.99
269.99
269.99
270.073
270.052
270.037
270.026
270.018
270.012
270.006
270.002
269.998
269.99
269.982
269.978
269.982
269.99
269.994
269.995
269.995
269.99
269.991
270.115
270.094
270.08
270.069
270.059
270.05
270.043
270.036
270.031
270.024
270.013
270.001
269.992
269.988
269.988
269.99
269.992
269.992
269.991
270.127
270.132
270.12
270.113
270.099
270.081
270.069
270.066
270.068
270.065
270.054
270.037
270.023
270.01
270
269.995
269.994
269.993
269.992
270.422
270.53
270.628
270.623
270.597
270.55
270.454
270.371
270.311
270.252
270.189
270.14
270.081
270.039
270.019
270.005
269.998
269.995
269.993
270.696
270.778
270.727
270.553
270.346
270.178
270.058
270.016
269.99
269.988
270.024
270.069
270.088
270.065
270.044
270.019
270.004
269.997
269.993
270.404
270.347
270.186
270.09
270.04
269.999
269.981
269.977
269.966
269.949
269.948
269.982
270.037
270.062
270.062
270.034
270.011
270
269.993
270.028
269.996
269.962
269.971
269.989
270.006
270.021
270.028
270.026
270.008
269.973
269.967
270.005
270.048
270.069
270.045
270.018
270.002
269.993
270.088
270.039
270.019
270.018
270.021
270.022
270.017
270.012
270.012
270.016
270.007
269.989
270.004
270.038
270.069
270.054
270.024
270.002
269.99
270.743
270.309
270.099
270.007
269.969
269.952
269.952
269.965
269.985
270.002
270.011
270.007
270.012
270.032
270.055
270.076
270.029
269.996
269.985
271.596
270.504
270.001
269.824
269.796
269.828
269.887
269.948
269.99
270.008
270.013
270.012
270.016
270.032
270.049
270.096
270.027
269.987
269.98
271.752
270.29
269.683
269.554
269.629
269.765
269.895
269.984
270.023
270.031
270.025
270.015
270.011
270.027
270.07
270.171
270.02
269.979
269.977
271.189
269.878
269.435
269.45
269.634
269.83
269.968
270.029
270.046
270.044
270.035
270.021
270.008
270.016
270.071
270.045
270.01
269.973
269.975
270.49
269.669
269.479
269.591
269.785
269.941
270.018
270.04
270.041
270.04
270.036
270.027
270.01
270.003
270.058
270.019
270.003
269.969
269.972
270.05
269.722
269.705
269.813
269.93
270.001
270.026
270.03
270.031
270.033
270.034
270.031
270.016
269.997
270.05
270.019
270.006
269.969
269.969
269.927
269.88
269.91
269.959
269.996
270.011
270.016
270.022
270.03
270.034
270.034
270.032
270.022
269.999
270.034
270.027
270.018
269.977
269.969
269.965
269.991
270.003
270.006
270.005
270.005
270.012
270.026
270.038
270.042
270.039
270.034
270.026
270.005
270.022
270.029
270.02
269.981
269.97
270.005
270.017
270.012
270.004
269.999
270.002
270.016
270.038
270.055
270.056
270.047
270.036
270.027
270.011
270.014
270.042
270.005
269.989
269.978
270.007
270.006
270.001
269.997
269.996
270.004
270.026
270.058
270.077
270.073
270.056
270.037
270.023
270.012
270.02
270.054
270.007
270
269.988
269.999
269.998
269.997
269.996
269.995
270.007
270.041
270.088
270.109
270.095
270.066
270.037
270.017
270.011
270.027
270.048
270.012
270.007
269.992
269.998
269.999
269.998
269.995
269.994
270.014
270.07
270.137
270.159
270.127
270.08
270.042
270.018
270.013
270.023
270.038
270.029
270.007
269.994
269.999
270
269.998
269.992
269.995
270.034
270.123
270.202
270.22
270.171
270.105
270.067
270.047
270.043
270.043
270.039
270.036
270.005
269.995
270
270
269.997
269.988
269.999
270.07
270.196
270.273
270.255
270.193
270.133
270.112
270.111
270.11
270.098
270.072
270.049
270.006
269.994
270
270.001
269.997
269.985
270.005
270.114
270.271
270.339
270.287
270.227
270.193
270.213
270.206
270.125
270.087
270.063
270.032
270.012
269.996
270
270.001
269.996
269.983
270.009
270.153
270.343
270.435
270.434
270.398
270.371
270.353
270.143
270.032
270.005
270.006
270.012
270.012
269.998
270.001
270.001
269.997
269.981
270.008
270.171
270.399
270.533
270.57
270.488
270.446
270.386
270.076
269.985
269.983
269.99
270.002
270.01
269.999
270.001
270.001
269.998
269.981
269.999
270.161
270.397
270.569
270.657
270.633
270.227
270.092
270.033
269.984
269.98
269.977
269.986
270.008
270
270
270.001
270
269.984
269.985
270.126
270.378
270.583
270.663
270.547
270.128
270
269.972
269.969
269.964
269.961
269.973
270.008
269.999
270
270.001
270.001
269.991
269.973
270.076
270.378
270.594
270.675
270.452
270.101
269.974
269.945
269.97
270.103
270.189
270.115
270.007
269.996
270
270
270.002
269.999
269.962
270.023
270.362
270.617
270.715
270.412
270.085
269.962
269.938
270.084
270.346
270.294
270.125
270.003
269.994
270.001
270
270.002
270.005
269.954
269.991
270.35
270.672
270.759
270.435
270.089
269.955
269.931
270.151
270.43
270.18
270.056
269.998
269.993
270
270
270.001
270.005
269.948
270.015
270.428
270.759
270.724
270.494
270.118
269.96
269.925
270.156
270.503
270.073
270.011
269.996
269.993
270
270
270.002
270.002
269.945
270.102
270.607
270.829
270.629
270.54
270.156
269.968
269.918
270.103
270.626
270.185
269.984
269.994
269.993
270
270
270.002
269.998
269.948
270.215
270.785
270.84
270.554
270.482
270.149
269.985
269.925
270.104
270.801
270.436
269.952
269.98
269.979
270
270
270.001
269.994
269.957
270.315
270.887
270.825
270.567
270.65
270.142
269.992
269.937
270.022
270.874
271.152
269.942
269.951
269.94
270
270
270.001
269.992
269.967
270.393
270.943
270.821
270.629
270.795
270.381
270.025
269.944
269.927
270.189
271.42
270.133
269.943
269.924
270
270
270.001
269.99
269.975
270.441
270.978
270.798
270.634
270.768
271.169
270.114
269.916
270.017
270.287
270.926
270.369
270.026
269.937
)
;

boundaryField
{
    leftWall
    {
        type            zeroGradient;
    }
    rightWall
    {
        type            zeroGradient;
    }
    lowerWall
    {
        type            zeroGradient;
    }
    atmosphere
    {
        type            zeroGradient;
    }
    defaultFaces
    {
        type            empty;
    }
}


// ************************************************************************* //
