/*--------------------------------*- C++ -*----------------------------------*\
| =========                 |                                                 |
| \\      /  F ield         | OpenFOAM: The Open Source CFD Toolbox           |
|  \\    /   O peration     | Version:  2.3.0                                 |
|   \\  /    A nd           | Web:      www.OpenFOAM.org                      |
|    \\/     M anipulation  |                                                 |
\*---------------------------------------------------------------------------*/
FoamFile
{
    version     2.0;
    format      ascii;
    class       volScalarField;
    location    "0.55";
    object      T;
}
// * * * * * * * * * * * * * * * * * * * * * * * * * * * * * * * * * * * * * //

dimensions      [0 0 0 1 0 0 0];

internalField   nonuniform List<scalar> 
2268
(
270
270
270
270
270
270
270
270
270
270
270
270
270
270
270
270
270
270
270
270
270
270
270
270
270
270
270
270
270
270
270
270
270
270
270
270
270
270
270
270
270
270
270
270
270
270
270
270
270
270
270
270
270
270
270
270
270
270
270
270
270
270
270
270
270
270
270
270
270
270
270
270
270
270
270
270
270
270
270
270
270
270
270
270
270
270
270
270
270
270
270
270
270
270
270
270
270
270
270.002
270.003
270.003
270.001
270
270
270
270
270
270
270
270
270
270
270
270
270
270
270
270
270
270
270.001
270.001
270
270.002
270.003
270.002
270.001
270.001
270
270
270
270
270
270
270
270
270
270
270
270
270
270.001
270.003
270.002
269.98
269.956
269.963
269.981
269.994
270.001
270.003
270.003
270.002
270.001
270.001
270
270
270
270
270
270
270
270
270.001
270.005
270.005
269.988
269.918
269.843
269.845
269.891
269.935
269.967
269.987
269.998
270.004
270.007
270.006
270.004
270.002
270
269.999
270
270
269.999
270.002
270.004
270.004
270.004
270.003
269.986
269.99
269.995
269.992
269.988
269.987
269.989
269.99
269.991
269.992
269.992
269.992
269.992
270
270.005
270.008
270.011
270.01
269.995
270.002
270.025
270.057
270.112
270.032
270.012
270.001
269.993
269.991
269.991
269.992
269.992
269.992
270
270.005
270.009
270.011
270.01
269.997
270.057
270.109
270.234
270.222
270.114
270.065
270.031
270.013
270.001
269.995
269.993
269.992
269.991
269.999
270.003
270.007
270.01
270.012
270.011
270.263
270.262
270.416
270.283
270.201
270.126
270.076
270.044
270.021
270.004
269.996
269.992
269.991
269.997
270.002
270.007
270.008
270.002
270.016
270.347
270.359
270.289
270.204
270.167
270.139
270.119
270.094
270.059
270.022
270.001
269.993
269.992
269.997
270.002
270.006
270.008
270.005
270.014
270.397
270.303
270.134
270.127
270.133
270.147
270.163
270.157
270.123
270.061
270.013
269.995
269.992
269.999
270.003
270.005
270.006
270.004
270.014
270.388
270.219
270.067
270.139
270.181
270.213
270.23
270.226
270.193
270.127
270.042
269.998
269.992
270.002
270.003
270.003
270.004
270.005
270.02
270.271
270.165
270.072
270.187
270.231
270.265
270.289
270.289
270.251
270.192
270.122
270.007
269.992
270
270
270.001
269.998
269.993
269.972
269.934
269.89
269.855
269.857
269.869
269.874
269.886
269.908
269.936
269.964
269.985
269.999
270.006
270.008
270.005
270.002
270
270
270.002
269.961
269.924
270.022
270.302
270.831
271.097
270.874
270.613
270.427
270.259
270.082
269.938
269.86
269.834
269.845
269.877
269.919
269.96
269.988
270.003
270.007
270.006
269.997
269.803
269.956
271.252
273.749
275.121
274.267
272.79
271.743
271.226
271.09
270.902
270.692
270.46
270.307
270.197
270.036
269.896
269.828
269.832
269.869
269.909
270.009
270.009
269.944
269.864
269.919
270.757
272.454
273.522
273.572
272.125
270.657
269.929
269.769
270.074
270.499
270.737
270.564
270.35
270.198
270.146
270.112
270.07
270.037
270.009
270.02
270.006
269.959
269.819
269.851
270.567
272.103
273.777
273.914
272.594
270.808
269.453
269.195
269.309
269.661
269.775
269.793
269.861
269.989
270.177
270.173
270.144
270.004
270.024
270.012
269.88
269.646
269.89
271.354
274.139
276.182
275.392
272.765
271.089
270.58
269.755
269.377
270.307
270.093
269.729
269.662
269.726
269.737
269.774
269.922
270.001
270.02
270.023
269.863
269.523
269.719
271.632
275.314
278.26
277.36
273.536
270.362
269.8
269.484
269.717
271.807
271.723
271.094
270.517
270.349
270.061
269.83
269.827
269.999
270.012
270.034
269.919
269.528
269.425
271.083
275.155
279.336
280.176
277.566
273.855
270.785
269.933
272.164
274.831
274.556
273.788
272.748
271.744
270.568
269.918
269.921
269.999
270.005
270.032
269.986
269.646
269.279
270.234
273.766
278.706
282.065
282.441
280.652
278.064
276.667
278.2
279.483
278.794
277.713
275.804
273.314
271
270.035
270.068
269.999
270.001
270.021
270.027
269.807
269.338
269.528
271.851
276.443
281.505
285.163
286.66
286.41
285.581
285.54
285.148
283.859
282.08
278.933
274.772
271.415
270.118
270.169
270
270
270.01
270.037
269.94
269.531
269.214
270.288
273.79
279.191
284.846
289.191
291.506
291.959
291.45
290.452
289.094
286.755
282.383
276.644
272.082
270.215
270.138
270
270
270.003
270.03
270.014
269.745
269.258
269.442
271.657
276.401
282.706
288.806
293.139
295.068
295.182
294.655
293.769
291.365
286.211
279.132
273.217
270.494
270.048
270.001
270.001
270
270.017
270.037
269.909
269.486
269.2
270.265
273.773
279.581
286.211
291.727
294.993
296.339
296.899
296.905
295.018
289.787
282.005
274.96
271.146
270.077
270.001
270.001
270
270.007
270.031
269.998
269.735
269.33
269.574
271.656
276.087
282.016
287.722
291.886
294.473
296.289
297.457
296.568
292.064
284.558
277.006
272.158
270.324
270.001
270.001
270
270.002
270.017
270.026
269.913
269.601
269.437
270.303
272.977
277.305
282.178
286.436
289.777
292.632
294.971
295.419
292.353
286.017
278.808
273.37
270.72
270.001
270.001
270
270
270.006
270.021
269.999
269.842
269.606
269.733
270.876
273.316
276.64
280.127
283.437
286.718
289.827
291.572
290.349
285.86
279.757
274.387
271.182
270.001
270.001
270.001
270
270
270.009
270.02
269.98
269.834
269.687
269.885
270.786
272.448
274.642
277.187
280.11
283.242
285.654
285.961
283.528
279.183
274.633
271.391
270
270.001
270.001
270.001
269.999
270.001
270.013
270.024
269.98
269.839
269.678
269.715
270.156
271.082
272.51
274.487
276.916
279.204
280.333
279.586
277.165
274.021
271.318
270
270.001
270.001
270.001
270
269.999
270.003
270.019
270.028
269.973
269.813
269.598
269.467
269.571
270.028
270.933
272.296
273.855
275.027
275.242
274.359
272.72
270.976
270
270.001
270.001
270.001
270.001
270
269.999
270.005
270.02
270.024
269.97
269.826
269.622
269.437
269.369
269.514
269.943
270.621
271.339
271.79
271.766
271.263
270.497
270.001
270.001
270.001
270.001
270.001
270
269.999
269.998
270.004
270.019
270.03
270.006
269.922
269.78
269.611
269.461
269.39
269.456
269.665
269.941
270.157
270.213
270.094
270.001
270.001
270.001
270.001
270.001
270.001
270
269.999
269.998
270.003
270.021
270.044
270.053
270.025
269.948
269.821
269.662
269.518
269.453
269.501
269.638
269.796
269.91
270.001
270.001
270.001
270.001
270.001
270.001
270.001
270
269.999
269.997
270.001
270.016
270.039
270.061
270.066
270.039
269.972
269.872
269.776
269.727
269.747
269.821
269.915
270.001
270
270.001
270.001
270.001
270
270.001
270.001
270.001
269.999
269.996
269.996
270.002
270.016
270.036
270.054
270.061
270.047
270.015
269.978
269.955
269.955
269.976
270.001
270
270
270.001
270
270
270
270.001
270.001
270
269.999
269.996
269.993
269.992
269.997
270.009
270.027
270.043
270.052
270.048
270.034
270.019
270.008
270.001
270
270
270
270
270
270
270
270
270
270.001
270.001
269.999
269.996
269.993
269.992
269.996
270.005
270.015
270.022
270.022
270.016
270.008
270
270
270
270
270
270
270
270
269.999
269.999
270
270.001
270.002
270.002
270
269.997
269.995
269.994
269.995
269.998
270.001
270.002
270.001
270
270.001
270
270
270
270
270
270
269.999
269.999
269.999
270
270.001
270.001
270.002
270.001
270
269.998
269.997
269.996
269.996
269.998
269.999
270
270.001
270.001
270.001
270
270
270
269.999
269.999
269.999
269.999
270
270
270
270
270.001
270.001
270.001
270
269.999
269.999
269.999
269.999
270
270.001
270.001
270.001
270
270
270
269.999
269.999
269.999
269.999
270
270
270
270
270
270
270
270
270
270
270
270
270
270.002
270.001
270.001
270.001
270
270
269.999
269.999
269.999
269.999
270
270
270
270
270
270
270
270
270
270
270
270
270.001
270.002
270.001
270.001
270.001
270
270
269.999
269.999
269.999
270
270
270
270
270
270
270
269.999
269.999
269.999
269.999
270
270
270.001
270.001
270.001
270.001
270
270
270
269.999
270
270
270
270
270
270
270
270
269.999
269.999
269.999
269.999
269.999
270
270
270.001
270.001
270.001
270.001
270
270
270
270
270
270
270
270.001
270
270
270
270
269.999
269.999
269.999
269.999
269.999
270
270
270.001
270
270.001
270
270
270
270
270
270
270
270.001
270.001
270
270
270
269.999
269.999
269.999
269.999
269.999
269.999
270
270
270.001
270
270
270
270
270
270
270
270.001
270.001
270.001
270.001
270
270
270
269.999
269.999
269.999
269.999
269.999
269.999
270
270
270
270
270
270
270
270
270
270
270
270
270
270
270
270
270
269.999
269.999
269.999
269.999
270
270
270
270
270
270
270
270
270
270
270
270
270
270
270
270
270
270
270
269.999
269.999
270
270
270
269.999
270
270
270
270
270
270
270
270
270
270
270
270
270
270
270
270
270
270
270
270
270
270
269.999
270
270
270.001
270
270
270
270
270
270
270
269.999
270
270
270
270
270
270
270
270
270
270
270
269.999
270
270
270.001
270
270
270
270
270
270
270
269.999
270
270
270
270
270
270
270
270
270
270
270
270
270
270.001
270.001
270
270
270
270
270
270
270
270
270
270
270.001
270
270
270
270
270
270
270
270
270
270.001
270.001
270
269.999
269.999
270
270.007
270.005
270.001
269.998
269.935
269.947
269.956
269.961
270.017
270.009
270.004
269.998
270.128
270.118
270.107
270.088
270.059
270.093
270.123
270.129
269.86
269.941
270.051
270.119
269.988
270.018
270.027
270.032
270.234
270.284
270.255
270.182
270.392
270.367
270.295
270.229
270.291
270.276
270.255
270.2
270.163
270.203
270.253
270.314
270.018
269.997
269.98
269.975
270.066
270.023
270.001
269.997
270.153
270.058
270.006
269.997
270.255
270.063
269.951
269.921
270.241
269.971
269.804
269.747
270.148
269.836
269.638
269.557
270.061
269.779
269.594
269.503
269.991
269.81
269.687
269.617
269.948
269.88
269.832
269.8
269.946
269.949
269.947
269.944
269.973
269.992
270.003
270.007
269.997
270.006
270.012
270.014
270.005
270.005
270.005
270.005
270.003
270
269.999
269.999
270
269.999
269.999
269.999
269.999
270
270
270.001
270
270
270.001
270.002
270
270.001
270.001
270.002
270
270
270.001
270.001
270
270
270
270.001
270
270
270
270
270
270
270
270
269.999
269.999
270
270
269.999
269.999
270
270
269.999
269.999
270
270
270
270
270
270
270
270
270.001
270
270.001
270
270
270
270.001
270
270
270.001
270
270
270.001
270
270.001
269.998
269.996
270.001
270.006
270.029
270.214
270.152
270.086
270.214
270.26
270.307
270.349
270.366
270.322
270.245
270.206
270.041
269.992
269.991
269.983
269.984
269.996
270.002
270.051
270.211
270.226
270.052
270.161
270.216
270.287
270.367
270.422
270.406
270.317
270.302
270.113
269.991
269.962
269.964
269.971
269.994
270.035
270.021
270.143
270.295
270.158
270.151
270.166
270.268
270.397
270.468
270.449
270.376
270.356
270.04
269.988
269.984
269.971
269.968
269.993
270.104
269.997
270.079
270.287
270.314
270.293
270.3
270.428
270.494
270.507
270.453
270.387
270.318
270.024
269.989
270.051
270.011
269.982
269.993
270.093
269.99
270.034
270.18
270.296
270.3
270.328
270.407
270.462
270.483
270.405
270.311
270.196
270.015
269.991
270.104
270.063
270.013
269.997
270.096
269.979
269.985
270.091
270.174
270.18
270.201
270.289
270.36
270.411
270.304
270.163
270.067
270.005
269.994
270.115
270.107
270.065
270.005
270.009
270.078
270.064
270.047
270.056
270.057
270.077
270.176
270.245
270.378
270.252
270.058
270
269.997
269.997
270.087
270.132
270.132
270.056
270.001
270.02
270.062
270.106
270.11
270.085
270.073
270.139
270.251
270.408
270.338
270.078
270
269.996
269.998
270.13
270.062
270.231
270.213
270.062
270.006
270.005
270.026
270.063
270.113
270.131
270.158
270.256
270.284
270.145
270.03
270.002
270.001
270.001
270.148
270.069
270.121
270.432
270.106
270.032
270
269.985
269.997
270.023
270.076
270.116
270.101
270.054
270.019
270.005
270.004
270.008
270.004
270.175
270.315
270.449
270.348
270.238
270.053
270.004
269.99
269.973
269.968
269.987
269.986
269.964
269.971
269.985
269.998
270.008
270.013
270.004
270.379
270.418
270.31
270.107
270.032
270.008
269.994
269.975
269.956
269.949
269.952
269.977
270.021
270.026
270.021
270.019
270.017
270.013
270.001
269.979
270.023
270.067
270.023
270.005
270.02
270.042
270.042
270.026
270.02
270.021
270.027
270.025
270.019
270.016
270.014
270.013
270.008
269.998
269.992
269.988
269.995
270.002
270.003
270.018
270.036
270.041
270.043
270.042
270.037
270.026
270.02
270.015
270.011
270.008
270.005
270.003
269.996
269.995
269.998
269.998
270.001
270.006
270.015
270.029
270.041
270.051
270.051
270.048
270.049
270.037
270.018
270.009
270.005
270.001
270
269.995
269.921
269.946
269.966
269.975
269.99
270.004
270.018
270.034
270.062
270.072
270.054
270.058
270.063
270.036
270.014
270.002
269.994
270.002
269.995
269.749
269.812
269.886
269.929
269.966
269.992
270.008
270.025
270.056
270.083
270.057
270.061
270.066
270.03
270.017
269.994
269.988
269.995
269.996
269.556
269.655
269.803
269.903
269.974
270.009
270.018
270.024
270.045
270.071
270.058
270.073
270.043
270.007
270.005
269.978
269.983
269.986
269.996
269.486
269.586
269.775
269.917
270.002
270.033
270.035
270.032
270.04
270.06
270.075
270.063
269.982
269.968
269.969
269.968
269.98
269.988
269.995
269.594
269.662
269.824
269.954
270.02
270.036
270.035
270.035
270.04
270.063
270.096
270.067
270.001
269.987
269.979
269.974
269.978
269.986
269.991
269.787
269.819
269.911
269.989
270.021
270.025
270.028
270.032
270.038
270.065
270.1
270.073
270.066
270.074
270.027
269.998
269.989
269.99
269.988
269.942
269.952
269.98
270.005
270.014
270.02
270.03
270.034
270.036
270.056
270.087
270.076
270.164
270.234
270.125
270.051
270.019
269.999
269.989
270.009
270.008
270.005
270.005
270.009
270.025
270.043
270.046
270.038
270.043
270.061
270.056
270.136
270.275
270.238
270.158
270.073
270.012
269.991
270.015
270.011
270.003
270
270.009
270.035
270.064
270.067
270.047
270.035
270.038
270.036
270.12
270.226
270.303
270.294
270.143
270.032
270
270.004
270.001
269.997
269.996
270.01
270.046
270.09
270.098
270.064
270.036
270.025
270.023
270.086
270.145
270.254
270.414
270.298
270.08
270.012
269.999
269.997
269.994
269.995
270.013
270.063
270.128
270.14
270.09
270.045
270.023
270.016
270.052
270.07
270.12
270.402
270.441
270.261
270.017
269.999
269.996
269.992
269.995
270.029
270.11
270.188
270.192
270.122
270.06
270.03
270.014
270.028
270.033
270.067
270.336
270.412
270.433
270.015
270
269.996
269.989
270.002
270.074
270.2
270.261
270.227
270.139
270.069
270.037
270.018
270.017
270.007
270.078
270.304
270.374
270.292
270.01
270
269.994
269.986
270.018
270.144
270.285
270.276
270.193
270.11
270.059
270.038
270.022
270.017
269.98
270.118
270.302
270.321
270.205
270.003
270
269.993
269.985
270.034
270.197
270.317
270.229
270.116
270.06
270.035
270.031
270.023
270.012
269.976
270.229
270.33
270.216
270.108
269.995
270.001
269.994
269.983
270.031
270.208
270.329
270.204
270.063
270.035
270.023
270.02
270.013
269.988
270.145
270.382
270.284
270.145
270.063
269.993
270.001
269.998
269.986
270.002
270.15
270.326
270.249
270.056
270.031
270.035
270.023
270.018
270.032
270.401
270.474
270.284
270.156
270.058
269.989
270.001
270.001
269.994
269.984
270.046
270.239
270.337
270.154
270.031
270.048
270.056
270.078
270.207
270.555
270.581
270.476
270.25
270.103
269.991
270
270.001
270.001
269.99
269.985
270.072
270.267
270.332
270.164
270.094
270.108
270.177
270.359
270.607
270.963
270.954
270.378
270.197
269.994
270
270
270.002
270.001
269.984
269.98
270.062
270.252
270.315
270.259
270.25
270.32
270.481
270.633
271.163
271.756
270.598
270.347
269.993
270
270
270
270.006
269.997
269.964
269.954
270.038
270.188
270.28
270.334
270.409
270.576
270.679
271.187
271.939
271.061
270.634
269.992
270
270
270
270.008
269.997
269.958
269.949
270.027
270.15
270.27
270.382
270.539
270.674
270.73
271.302
272.101
271.452
270.725
269.997
270
270
270
270.008
269.981
269.95
270.032
270.268
270.477
270.584
270.658
270.741
270.67
270.837
271.513
272.242
271.539
270.613
269.996
270
270
270.001
270.005
269.96
269.977
270.21
270.575
270.804
270.861
270.848
270.725
270.655
271.146
271.767
272.243
272.101
270.187
269.99
270
270
270.001
270
269.948
270.07
270.472
270.814
270.858
270.759
270.646
270.541
270.928
271.59
271.945
272.196
272.176
270.066
269.996
270
270
270.001
269.995
269.952
270.215
270.738
270.899
270.76
270.605
270.53
270.737
271.447
271.867
271.99
272.182
271.868
272.5
270.001
270
270
270
269.992
269.967
270.345
270.889
270.872
270.693
270.568
270.564
270.964
271.691
271.91
271.993
272.204
271.965
273.654
270.06
)
;

boundaryField
{
    leftWall
    {
        type            zeroGradient;
    }
    rightWall
    {
        type            zeroGradient;
    }
    lowerWall
    {
        type            zeroGradient;
    }
    atmosphere
    {
        type            zeroGradient;
    }
    defaultFaces
    {
        type            empty;
    }
}


// ************************************************************************* //
