/*--------------------------------*- C++ -*----------------------------------*\
| =========                 |                                                 |
| \\      /  F ield         | OpenFOAM: The Open Source CFD Toolbox           |
|  \\    /   O peration     | Version:  2.3.0                                 |
|   \\  /    A nd           | Web:      www.OpenFOAM.org                      |
|    \\/     M anipulation  |                                                 |
\*---------------------------------------------------------------------------*/
FoamFile
{
    version     2.0;
    format      ascii;
    class       volScalarField;
    location    "0.8";
    object      T;
}
// * * * * * * * * * * * * * * * * * * * * * * * * * * * * * * * * * * * * * //

dimensions      [0 0 0 1 0 0 0];

internalField   nonuniform List<scalar> 
2268
(
270
270
270
270
270
270
270
270
270
270
270
270
270
270
270
270
270
270
270
270
270
270
270
270
270
270
270
270.001
270.003
270.004
270.003
270.001
270
270
270
270
270
270
270
270
270
270
270
270
270
270
270
270
270
270
270.002
270.004
270.003
270.004
270.004
270
270
270
270
270
270
270
270
270
270
270
270
270
270
270
270
270
270.001
270.001
269.993
269.979
269.982
270.001
270.003
270
270
270
270
270
270
270
270
270
270
270
270.001
270
270
270
270
270.002
270.002
269.987
269.951
269.937
269.977
270.005
270.001
270
270
270
270
270
270
270
270
270
270.001
270.003
270.002
269.999
269.998
269.999
270.002
270.004
269.989
269.942
269.895
269.931
269.997
270.005
270
270
270
270.001
270.001
270
270
270.001
270.001
270.002
270.003
270.002
270.004
270.009
270.012
270.011
270.002
269.972
269.932
269.87
269.879
269.971
270.007
270.004
270.002
270.001
270.001
270.001
270.001
270.001
270
269.999
269.999
269.993
269.999
269.991
269.974
269.959
269.951
269.934
269.908
269.896
269.839
269.819
269.916
269.992
270.004
269.993
269.983
269.98
269.983
269.987
269.989
269.987
269.983
269.981
269.972
269.985
270.001
269.995
269.992
269.989
269.986
269.984
269.987
269.994
269.989
269.989
269.998
270
269.999
269.997
269.993
269.987
269.978
269.976
269.987
269.999
269.992
269.989
269.987
269.983
269.979
269.98
269.992
269.995
270.001
270.004
270.001
270.002
270.002
270.001
270.002
269.999
269.985
269.97
269.999
269.993
269.995
269.994
269.989
269.982
269.983
269.994
270.001
270.003
269.999
269.998
269.998
269.998
269.998
269.998
270.002
269.994
270.002
269.999
269.996
270
269.997
269.993
269.984
269.986
269.997
270.003
270
269.999
269.999
269.999
270
270.002
270.002
270.002
269.998
270.011
270
269.998
270.001
269.998
269.994
269.986
269.99
270
270.003
270
270.001
270.001
270.004
270.007
270.009
270.007
270.004
270.001
270.013
270.001
270
270.001
269.997
269.994
269.989
269.993
270.002
270.003
270.001
270.002
270.009
270.017
270.017
270.014
270.01
270.008
270.003
270.012
270.001
270.004
269.999
269.995
269.994
269.991
269.997
270.003
270.003
270.004
270.005
270.014
270.021
270.02
270.017
270.012
270.007
270.005
270.012
270.005
270.002
269.996
269.995
269.995
269.994
270
270.004
270.007
270.007
270.006
270.016
270.021
270.021
270.02
270.017
270.013
270.013
270.016
270.014
270.105
270.133
270.085
270.065
270.078
270.035
269.925
269.848
269.853
269.89
269.918
269.936
269.942
269.938
269.937
269.947
269.96
269.967
269.962
269.955
269.948
269.955
271.094
270.747
270.679
270.536
270.436
270.356
270.28
270.204
270.129
270.056
270.013
270.008
270.015
270.008
269.986
269.97
269.974
269.986
269.99
269.977
269.962
269.957
269.957
269.587
270.05
270.087
270.171
270.183
270.166
270.154
270.159
270.157
270.132
270.103
270.082
270.062
270.05
270.05
270.05
270.05
270.052
270.046
270.039
270.032
270.022
270.01
269.534
270.051
270.019
270.009
269.997
269.98
269.981
270.007
270.032
270.035
270.028
270.02
270.011
270
269.984
269.982
269.986
269.996
270.004
269.999
269.993
269.994
269.996
269.538
269.994
270.055
270.144
270.167
270.084
270.06
270.066
270.076
270.088
270.111
270.108
270.072
270.039
270.009
269.994
269.99
269.983
270.006
269.998
269.993
269.993
269.995
269.591
269.9
270.104
270.456
270.612
270.294
270.042
270.083
270.123
270.12
270.119
270.114
270.094
270.062
270.032
270.003
269.986
269.976
269.974
269.993
269.995
269.985
269.989
269.607
269.76
270.108
270.782
271.456
271.469
270.741
270.112
270.093
270.116
270.12
270.144
270.139
270.111
270.072
270.036
270.002
269.981
269.971
269.968
269.971
269.978
269.988
269.658
269.653
270.081
270.912
271.618
272.017
272.153
270.953
270.082
270.136
270.134
270.146
270.157
270.15
270.131
270.093
270.045
270.009
269.984
269.977
269.978
269.986
270.01
269.793
269.652
270.11
270.987
271.337
271.335
272.26
272.837
270.745
270.111
270.269
270.223
270.19
270.154
270.159
270.164
270.129
270.074
270.03
270.011
270.016
270.04
270.066
270.009
269.775
270.237
271.056
271.067
270.571
271.087
273.68
272.544
270.637
270.261
270.44
270.395
270.222
270.122
270.167
270.211
270.203
270.163
270.12
270.113
270.124
270.084
270.356
270.027
270.424
271.115
271
270.275
270.018
273.115
274.131
271.983
270.447
270.402
270.756
270.628
270.196
270.091
270.161
270.203
270.21
270.196
270.17
270.143
270.119
270.911
270.453
270.696
271.216
271.09
270.323
269.563
272.16
274.965
273.61
271.123
270.338
270.921
271.379
270.776
270.131
270.1
270.177
270.211
270.215
270.196
270.16
270.116
271.303
270.945
271.085
271.377
271.151
270.381
269.469
271.468
275.309
275.317
272.525
270.856
271.285
272.275
271.992
270.609
270.071
270.128
270.204
270.232
270.22
270.186
270.121
271.053
271.223
271.393
271.407
271.006
270.274
269.452
271.074
275.353
277.013
274.904
272.707
272.662
273.757
273.712
271.897
270.205
270.081
270.126
270.214
270.229
270.202
270.15
270.483
271.097
271.27
271.075
270.642
270.05
269.43
270.813
275.037
278.238
277.894
276.142
275.669
276.367
276.151
273.949
271.166
270.015
270.085
270.101
270.189
270.179
270.122
270.094
270.635
270.729
270.535
270.265
269.851
269.411
270.524
274.257
278.433
280.369
280.283
280.065
280.265
279.546
276.87
273.11
270.648
269.984
270.063
270.067
270.106
270.07
269.96
270.194
270.223
270.153
270.051
269.758
269.408
270.14
273.055
277.42
281.262
283.534
284.616
284.925
283.893
280.842
276.316
272.305
270.469
269.954
270.027
270.036
269.953
269.96
270.001
270.011
270.023
269.995
269.771
269.436
269.726
271.675
275.525
280.319
284.696
287.759
289.164
288.621
285.807
281.054
275.842
272.142
270.4
269.91
269.807
269.826
269.987
269.977
269.985
270.013
270.008
269.848
269.519
269.427
270.453
273.359
278.077
283.598
288.483
291.618
292.504
290.938
287.033
281.666
276.601
273.124
271.233
270.456
270.507
270
269.993
269.997
270.017
270.027
269.937
269.654
269.341
269.648
271.483
275.36
280.863
286.682
291.369
294.091
294.552
292.669
288.738
283.848
279.472
276.441
274.824
274.671
270.001
270
270
270.011
270.031
270.002
269.809
269.455
269.328
270.216
272.867
277.39
282.966
288.302
292.42
294.883
295.473
294.118
291.191
287.677
284.646
282.701
281.915
270.001
270.001
270
270.004
270.023
270.03
269.936
269.667
269.384
269.607
271.03
274.052
278.39
283.201
287.639
291.212
293.648
294.712
294.34
292.862
290.934
289.045
287.187
270.001
270.001
270
270.001
270.011
270.029
270.006
269.865
269.617
269.506
269.999
271.529
274.172
277.569
281.183
284.602
287.567
289.824
291.119
291.334
290.572
288.966
286.531
270.001
270.002
270.001
270
270.003
270.016
270.026
269.985
269.847
269.668
269.66
270.119
271.244
273.002
275.171
277.505
279.813
281.899
283.499
284.332
284.202
283.078
281.04
270.001
270.002
270.002
270.001
270
270.005
270.019
270.026
269.986
269.87
269.72
269.661
269.848
270.369
271.204
272.268
273.463
274.676
275.73
276.396
276.461
275.874
274.735
270.001
270.002
270.002
270.002
270
270
270.007
270.023
270.03
269.994
269.886
269.721
269.564
269.492
269.555
269.759
270.083
270.486
270.89
271.186
271.26
271.082
270.723
270.001
270.002
270.002
270.002
270.001
269.999
270
270.009
270.024
270.029
269.995
269.899
269.746
269.568
269.407
269.29
269.231
269.228
269.268
269.325
269.373
269.402
269.435
270.001
270.002
270.002
270.002
270.001
270
269.999
270
270.008
270.02
270.024
270.003
269.945
269.854
269.742
269.628
269.525
269.442
269.388
269.372
269.399
269.471
269.576
270.001
270.001
270.001
270.001
270.001
270.001
270
269.999
270
270.005
270.014
270.023
270.024
270.011
269.984
269.947
269.905
269.862
269.829
269.813
269.825
269.864
269.914
270.001
270.001
270.001
270.001
270.001
270
270
269.999
269.998
269.999
270.002
270.011
270.022
270.034
270.042
270.046
270.044
270.038
270.031
270.027
270.027
270.031
270.033
270.001
270.001
270.001
270.001
270
270
270
270
269.999
269.998
269.998
270
270.005
270.013
270.021
270.029
270.035
270.039
270.04
270.04
270.037
270.031
270.022
270.001
270.001
270
270
270
270
270
270
270
269.999
269.998
269.998
269.998
269.999
270.001
270.004
270.006
270.008
270.01
270.01
270.008
270.005
270.001
270.001
270.001
270
270
270
270
270
270
270
269.999
269.999
269.998
269.998
269.997
269.997
269.997
269.997
269.998
269.998
269.998
269.997
269.997
269.997
270.001
270.001
270
270
270
270
270
270
269.999
269.999
269.999
269.999
269.999
269.999
269.999
269.999
269.999
269.998
269.998
269.998
269.998
269.998
269.999
270
270.001
270.001
270.001
270
270
270
269.999
269.999
269.998
269.999
269.999
269.999
270
270
270
270
270
270
269.999
269.999
269.999
269.999
270
270.001
270.001
270.001
270.001
270
269.999
269.999
269.998
269.998
269.999
269.999
269.999
270
270
270
270
270
269.999
269.999
269.999
269.999
269.999
270
270.001
270.002
270.001
270.001
270
269.999
269.999
269.999
269.999
269.999
269.999
270
270
270
270
270
269.999
269.999
269.999
269.999
269.999
269.999
270.001
270.002
270.002
270.001
270.001
270
269.999
269.999
269.999
270
270
270
270
270
270
270
269.999
269.999
269.999
269.999
269.999
269.999
269.999
270.001
270.001
270.001
270.001
270
270
270
270
270
270
270
270
270
270
270
270
269.999
269.999
269.999
269.999
269.999
269.999
269.999
270.001
270.001
270.001
270.001
270
270
270
270
270
270
270
270
270.001
270
270
270
269.999
269.999
269.999
269.999
269.999
269.999
269.999
270.001
270.001
270.001
270.001
270
270
270
270.001
270
270
270
270.001
270.001
270
270
270
269.999
269.999
269.999
269.999
269.999
269.999
270
270.001
270.001
270.001
270.001
270.001
270
270
270
270
270
270.001
270.001
270.001
270
270
270
269.999
269.999
270
270
269.999
270
270
269.965
269.971
269.976
269.98
269.961
269.966
269.974
269.984
270.009
270.009
270.009
270.011
270
270.005
270.009
270.016
269.998
270.004
270.015
270.029
269.995
269.999
270.004
270.015
269.999
270.003
270.004
270.008
270.016
270.014
270.011
270.01
270.045
270.03
270.021
270.016
270.067
270.047
270.033
270.025
270.097
270.08
270.06
270.041
270.096
270.1
270.102
270.097
270.055
270.042
270.059
270.094
270.08
270.016
269.978
269.993
270.085
270.001
269.951
269.949
269.975
269.913
269.878
269.927
269.865
269.866
269.915
270.133
269.899
270.166
270.505
270.988
270.924
271.464
272.195
273.064
275.131
275.743
276.428
277.045
281.658
281.559
281.318
280.842
285.687
284.55
283.217
281.693
284.379
282.78
281.073
279.314
279.233
277.932
276.611
275.319
273.747
273.062
272.398
271.782
270.43
270.244
270.084
269.956
269.473
269.512
269.561
269.62
269.665
269.725
269.785
269.84
269.95
269.971
269.988
270
270.032
270.029
270.025
270.02
270.015
270.011
270.007
270.003
269.999
269.998
269.998
269.998
269.998
269.998
269.998
269.998
269.999
269.999
269.999
269.999
269.999
270
270
270
270
270
270
270
270
270
269.999
269.999
270
269.999
269.999
269.999
269.999
269.999
269.999
270
270
270
270
270
270
270
270
270.001
270
270
270
270.001
269.99
269.992
269.994
269.996
269.997
269.998
270.004
270.011
270.018
270.012
270.003
270.011
270.015
270.018
270.021
270.022
270.023
270.024
270.022
269.99
270.011
269.987
269.992
270
270.004
270.01
270.024
270.028
270.014
269.997
269.995
270.001
270.006
270.013
270.019
270.018
270.015
270.013
270.008
270.017
269.974
269.98
269.998
270.009
270.017
270.031
270.019
270.006
270.001
269.996
269.996
269.995
269.997
270.001
270
270.002
270.007
270.013
269.991
269.956
269.964
269.993
270.012
270.025
270.05
270.039
270.025
270.025
270.013
270.011
270.004
270
270.001
270
269.998
270.001
270.016
269.98
269.945
269.958
269.986
270.013
270.03
270.068
270.087
270.098
270.099
270.038
270.039
270.029
270.017
270.01
270.004
269.999
269.997
270.028
269.99
269.954
269.962
269.985
270.013
270.028
270.055
270.092
270.139
270.126
270.008
270.033
270.035
270.024
270.012
270.005
270
269.996
270.018
270.013
269.971
269.97
269.989
270.019
270.023
270.032
270.052
270.08
270.15
270.041
270.024
270.024
270.039
270.03
270.015
270.005
270.001
270.01
270.01
269.982
269.978
269.994
270.023
270.053
270.045
270.037
270.033
270.117
270.141
270.055
270.01
270.019
270.049
270.034
270.011
270.001
270.011
270.001
269.989
269.976
270.006
270.023
270.059
270.068
270.053
270.032
270.09
270.18
270.101
270.021
269.993
270.041
270.058
270.023
270
270.011
269.997
269.995
269.984
269.99
270.03
270.036
270.067
270.082
270.066
270.086
270.115
270.038
270.005
270.021
270.049
270.053
270.058
269.998
270.017
270.01
270.007
270
269.993
269.99
269.995
270.025
270.07
270.091
270.124
270.047
270.017
270.012
270.017
270.042
270.032
270.091
269.994
270.074
270.044
270.02
270.014
270.008
269.999
269.992
269.994
270.023
270.064
270.03
270.007
270.023
270.042
270.054
270.06
270.015
270.11
269.988
270.131
270.137
270.098
270.051
270.021
270.012
270.004
269.993
269.993
270.011
269.991
269.99
270.013
270.062
270.062
270.044
270.001
270.15
269.982
270.062
270.154
270.157
270.118
270.067
270.034
270.002
269.994
269.984
269.986
270.011
270.064
270.069
270.064
270.038
270.031
269.998
270.204
269.974
270.056
270.216
270.179
270.181
270.111
270.069
270.069
270.046
270.014
270.016
270.088
270.058
270.041
270.021
270.012
270.038
269.998
270.272
269.967
270.232
270.627
270.339
270.179
270.153
270.015
269.962
269.994
270.022
270.021
269.989
269.973
269.978
269.995
270.023
270.06
269.995
270.355
269.964
270.796
271.453
270.924
270.226
270.107
270.01
269.879
269.837
269.852
269.877
269.905
269.944
269.984
270.017
270.05
270.081
269.99
270.452
269.969
271.994
272.626
271.763
270.512
270.003
269.892
269.803
269.76
269.781
269.837
269.905
269.964
270.005
270.036
270.075
270.098
269.988
270.561
269.991
274.197
274.147
272.499
270.799
269.979
269.749
269.698
269.71
269.77
269.852
269.928
269.981
270.017
270.055
270.106
270.116
269.993
270.69
270.049
277.111
275.46
272.886
270.893
269.972
269.697
269.67
269.73
269.817
269.899
269.959
270.001
270.039
270.087
270.142
270.128
270.011
270.85
270.201
279.096
275.808
272.75
270.813
269.966
269.731
269.741
269.822
269.9
269.957
269.998
270.037
270.08
270.128
270.179
270.131
270.059
271.057
270.667
278.783
274.975
272.173
270.608
269.969
269.822
269.859
269.925
269.969
270.004
270.044
270.087
270.127
270.167
270.206
270.12
270.17
271.323
271.016
276.514
273.365
271.336
270.323
269.968
269.92
269.959
269.987
270.008
270.05
270.1
270.134
270.158
270.188
270.218
270.095
270.391
271.545
271.073
273.454
271.566
270.505
270.071
269.973
269.988
270.003
270.005
270.041
270.106
270.142
270.144
270.151
270.186
270.209
270.067
270.751
271.411
270.987
270.984
270.295
270.011
269.964
269.993
270.012
270.002
270.015
270.094
270.151
270.136
270.104
270.114
270.171
270.182
270.104
271.113
270.89
270.91
269.848
269.834
269.902
269.973
270.007
270.005
269.992
270.044
270.149
270.152
270.083
270.05
270.085
270.159
270.108
270.312
271.195
270.64
270.948
269.731
269.868
269.959
269.999
270.006
269.992
269.993
270.081
270.175
270.113
270.028
270.029
270.084
270.12
270.126
270.575
271.191
270.713
271.08
269.914
269.977
270.001
270.004
270
269.987
270.001
270.099
270.17
270.075
270.006
270.039
270.071
270.078
270.216
270.686
271.09
270.917
271.264
270.01
270.009
270.004
270.002
269.997
269.986
270.004
270.088
270.149
270.063
270.005
270.029
270.029
270.059
270.214
270.415
270.817
271.082
271.385
270.012
270.003
270
270.001
269.997
269.988
269.998
270.056
270.117
270.073
270.004
270.009
270.019
270.075
270.21
270.234
270.572
271.181
271.453
270
269.999
270
270.001
269.998
269.992
269.992
270.018
270.066
270.084
270.028
270.013
270.059
270.127
270.208
270.258
270.572
271.363
271.472
269.998
269.999
270
270.001
270
269.997
269.992
269.986
270.003
270.074
270.1
270.059
270.076
270.149
270.214
270.388
270.794
271.648
271.468
269.999
270
270
270.001
270.001
270.002
269.996
269.964
269.963
270.077
270.207
270.231
270.223
270.264
270.346
270.678
271.166
271.939
271.461
270
270
270
270
270.002
270.006
269.991
269.951
270.004
270.203
270.39
270.467
270.476
270.487
270.625
271.121
271.576
272.123
271.48
270
269.999
270
270
270.003
270.004
269.971
269.975
270.169
270.462
270.624
270.648
270.655
270.736
271.042
271.614
271.886
272.155
271.541
269.999
270
270
270
270.005
269.989
269.962
270.095
270.436
270.696
270.718
270.68
270.801
271.085
271.51
271.973
272.021
272.103
271.631
269.999
270
270
270.003
270.002
269.969
270.026
270.338
270.688
270.765
270.643
270.653
271.02
271.487
271.833
272.125
272.021
272.074
271.72
270
270
270
270.005
269.988
269.974
270.206
270.623
270.814
270.704
270.556
270.701
271.277
271.761
271.945
272.166
271.958
272.106
271.722
270
270
270
270.006
269.969
270.036
270.459
270.827
270.812
270.63
270.538
270.8
271.456
271.855
271.955
272.187
271.883
272.166
271.616
270.001
270
270.001
270.001
269.957
270.146
270.678
270.901
270.761
270.595
270.555
270.877
271.54
271.87
271.956
272.201
271.836
272.207
271.496
270.001
270
270.001
269.996
269.96
270.247
270.798
270.899
270.724
270.583
270.565
270.916
271.582
271.877
271.962
272.207
271.823
272.216
271.452
270
270
270
269.993
269.966
270.294
270.837
270.889
270.712
270.579
270.569
270.933
271.602
271.882
271.964
272.21
271.821
272.217
271.454
)
;

boundaryField
{
    leftWall
    {
        type            zeroGradient;
    }
    rightWall
    {
        type            zeroGradient;
    }
    lowerWall
    {
        type            zeroGradient;
    }
    atmosphere
    {
        type            zeroGradient;
    }
    defaultFaces
    {
        type            empty;
    }
}


// ************************************************************************* //
