/*--------------------------------*- C++ -*----------------------------------*\
| =========                 |                                                 |
| \\      /  F ield         | OpenFOAM: The Open Source CFD Toolbox           |
|  \\    /   O peration     | Version:  2.3.0                                 |
|   \\  /    A nd           | Web:      www.OpenFOAM.org                      |
|    \\/     M anipulation  |                                                 |
\*---------------------------------------------------------------------------*/
FoamFile
{
    version     2.0;
    format      ascii;
    class       volScalarField;
    location    "0.6";
    object      T;
}
// * * * * * * * * * * * * * * * * * * * * * * * * * * * * * * * * * * * * * //

dimensions      [0 0 0 1 0 0 0];

internalField   nonuniform List<scalar> 
2268
(
270
270
270
270
270
270
270
270
270
270
270
270
270
270
270
270
270
270
270
270
270
270
270
270
270
270
270
270
270
270
270
270
270
270
270
270
270
270
270
270
270
270
270
270
270
270
270
270
270
270
270
270
270
270.001
270
270
270
270
270
270
270
270
270
270
270
270
270
270
270
270
270
270
270
270
270
270.002
270.004
270.004
270.001
270
270
270
270
270
270
270
270
270
270
270
270
270
270
270
270
270
270
270.002
270.003
270.003
270.006
270.005
270.002
270
270
270
270
270
270
270
270
270
270
270
270
270
270
270
270
270.002
270.003
269.988
269.968
269.977
269.995
270.003
270.002
270.001
270
270
270
270
270
270
270
270
270
270
270
270
269.998
269.996
269.996
269.984
269.937
269.88
269.881
269.934
269.98
269.999
270.003
270.003
270.002
270.001
270
270
270
270
270
270
270
270
270.001
269.965
269.962
269.962
269.932
269.864
269.795
269.771
269.821
269.898
269.954
269.985
269.999
270.005
270.007
270.006
270.005
270.002
270
269.999
269.999
270
270.001
270.005
270.006
270.007
270.007
270.009
269.996
269.985
269.987
269.988
269.988
269.989
269.989
269.99
269.991
269.992
269.992
269.992
269.992
270.001
270.006
270.005
270.004
270.005
270.008
269.994
269.993
270.003
270.009
270.007
270.004
270.002
270
269.999
269.998
269.996
269.993
269.99
270.001
270.004
270.003
270.001
270
270.006
269.993
270.013
270.084
270.248
270.207
270.193
270.151
270.1
270.055
270.023
270.007
269.996
269.986
270.001
270.001
270.001
269.997
269.996
270.003
269.995
270.009
270.204
270.298
270.242
270.232
270.216
270.185
270.128
270.07
270.025
270.002
269.982
270
270.001
269.998
269.991
269.991
270
269.996
270.018
270.27
270.383
270.382
270.365
270.329
270.278
270.203
270.124
270.05
270.009
269.982
269.998
270
269.994
269.985
269.988
269.997
269.994
270.003
270.388
270.431
270.407
270.377
270.352
270.341
270.322
270.222
270.092
270.018
269.983
269.999
269.999
269.987
269.979
269.986
269.996
269.994
270.032
270.45
270.412
270.344
270.293
270.271
270.285
270.331
270.358
270.181
270.028
269.985
270.004
269.994
269.979
269.975
269.986
269.996
269.996
270.082
270.444
270.34
270.281
270.237
270.227
270.241
270.289
270.359
270.442
270.04
269.987
270
269.999
270.045
270.056
270.026
270.031
270.092
270.087
269.99
269.906
269.872
269.869
269.881
269.904
269.931
269.96
269.983
269.997
270.005
270.007
270.007
270.004
270.002
269.993
270.225
271.163
270.96
270.881
271.218
271.491
271.277
270.884
270.613
270.433
270.291
270.155
270.004
269.896
269.841
269.837
269.861
269.897
269.933
269.958
269.973
269.984
269.973
269.916
270.767
272.437
273.819
273.079
271.472
270.767
270.487
270.407
270.548
270.716
270.717
270.552
270.363
270.222
270.188
270.132
270.009
269.902
269.869
269.886
269.912
269.997
269.904
270.018
270.106
271.093
273.411
273.492
272.716
271.439
270.377
269.847
269.551
269.628
269.946
270.26
270.413
270.313
270.227
270.181
270.152
270.134
270.118
270.103
270.013
269.993
269.913
269.897
269.834
270.709
271.6
272.3
273.402
273.873
272.7
270.421
269.563
269.414
269.676
269.927
269.658
269.696
269.785
269.851
269.91
269.989
270.083
270.009
270.026
269.991
269.887
269.657
269.831
271.002
273.529
275.842
275.398
273.125
271.343
270.588
269.592
269.996
271.302
270.469
270.049
270.006
270.095
269.942
269.872
269.93
270.004
270.024
270.017
269.856
269.544
269.767
271.447
274.856
277.882
277.2
273.407
270.453
269.758
269.478
271.327
273.624
272.743
272.055
271.533
271.274
270.501
269.978
269.876
270.001
270.016
270.029
269.887
269.508
269.535
271.247
275.153
279.156
279.917
277.533
274.217
271.102
270.832
274.672
277.172
276.392
275.591
274.381
272.738
270.953
270.075
270.03
269.999
270.008
270.033
269.957
269.595
269.322
270.456
274.009
278.706
281.851
282.317
280.924
278.826
278.466
280.953
281.891
280.878
279.566
277.004
273.662
271.035
270.103
270.2
269.999
270.002
270.025
270.013
269.752
269.313
269.689
272.208
276.716
281.454
284.947
286.737
287.046
287.008
287.472
287.007
285.596
283.227
278.92
273.921
270.764
270.056
270.273
269.999
270
270.014
270.035
269.9
269.47
269.27
270.582
274.181
279.388
284.802
289.156
291.74
292.574
292.381
291.606
290.148
286.786
280.762
274.301
270.69
270.018
270.202
270
270
270.006
270.034
269.993
269.68
269.225
269.6
272.051
276.868
283.082
289.087
293.367
295.261
295.5
295.227
294.036
290.06
282.745
275.118
270.902
269.973
270.134
270
270
270.001
270.022
270.032
269.858
269.404
269.232
270.595
274.44
280.45
287.075
292.362
295.31
296.57
297.221
296.607
292.573
284.654
276.243
271.313
269.96
269.944
270.001
270.001
270
270.011
270.035
269.97
269.649
269.267
269.768
272.329
277.251
283.419
288.973
292.766
295.153
296.904
297.189
293.755
286.084
277.39
271.791
270.031
269.955
270.001
270.001
270
270.003
270.023
270.019
269.852
269.499
269.473
270.777
274.078
278.911
283.915
288.014
291.255
294.063
295.523
293.395
286.902
278.657
272.583
270.198
269.942
270.001
270.001
270
270
270.01
270.025
269.971
269.754
269.538
269.931
271.621
274.685
278.44
282.124
285.619
289.085
291.671
291.313
286.811
279.804
273.691
270.594
269.928
270.001
270.001
270.001
270
270.002
270.015
270.017
269.934
269.745
269.682
270.202
271.624
273.835
276.506
279.543
282.977
286.125
287.276
285.013
279.934
274.514
271.059
269.925
270.001
270.001
270.001
270.001
270
270.004
270.019
270.014
269.926
269.757
269.691
270.005
270.875
272.321
274.378
277.086
280.023
281.97
281.602
278.736
274.715
271.455
269.95
270.001
270.001
270.001
270.001
270
270
270.009
270.027
270.014
269.909
269.71
269.542
269.597
270.041
271.013
272.618
274.706
276.601
277.328
276.346
274.049
271.581
270.021
270.001
270.002
270.001
270.001
270.001
269.999
270.001
270.013
270.029
270.004
269.887
269.678
269.462
269.373
269.554
270.14
271.169
272.409
273.345
273.47
272.653
271.29
270.093
270.001
270.001
270.001
270.001
270.001
270
269.999
270.001
270.013
270.026
270.007
269.919
269.757
269.561
269.405
269.386
269.601
270.07
270.653
271.08
271.106
270.691
270.086
270.001
270.001
270.001
270.001
270.001
270.001
270
269.998
270.001
270.013
270.032
270.036
269.997
269.898
269.743
269.561
269.415
269.39
269.535
269.798
270.04
270.118
270.005
270.001
270.001
270.001
270.001
270.001
270.001
270.001
269.999
269.998
270
270.013
270.037
270.057
270.054
270.006
269.899
269.745
269.59
269.507
269.546
269.683
269.841
269.936
270.001
270.001
270.001
270.001
270.001
270.001
270.001
270.001
270
269.998
269.998
270.007
270.025
270.048
270.062
270.052
270.002
269.916
269.825
269.772
269.784
269.852
269.938
270.001
270
270
270.001
270
270
270
270.001
270.001
269.999
269.997
269.995
269.997
270.007
270.024
270.043
270.056
270.05
270.023
269.987
269.96
269.957
269.978
270.001
270
270
270
270
270
270
270
270
270
270
269.998
269.995
269.993
269.996
270.005
270.021
270.037
270.047
270.044
270.03
270.015
270.006
270.001
270
270
270
270
270
270
270
270
270
270
270.001
270
269.998
269.995
269.994
269.997
270.004
270.013
270.02
270.02
270.015
270.008
270.001
270
270
270
270
270
270
270
269.999
269.999
270
270
270.001
270.001
270
269.998
269.996
269.995
269.996
269.999
270.001
270.002
270.002
270
270.001
270
270
270
270
270
269.999
269.999
269.999
269.999
270
270
270.001
270.001
270.001
270
269.999
269.997
269.996
269.997
269.998
269.999
270
270.001
270.001
270
270
270
269.999
269.999
269.999
269.999
269.999
269.999
270
270
270
270.001
270.001
270.001
270
269.999
269.999
269.999
269.999
270
270.001
270.001
270.001
270
270
269.999
269.999
269.999
269.999
269.999
270
270
270
270
270
270
270
270
270
270
270
270
270
270.001
270.001
270.001
270
270
269.999
269.999
269.999
269.999
269.999
270
270
270
270
270
270
270
270
270
270
270
270
270.001
270.001
270.001
270.001
270
270
269.999
269.999
269.999
270
270
270
270
270
270
270
270
269.999
269.999
269.999
269.999
270
270
270.001
270.001
270.001
270.001
270
270
269.999
270
270
270
270
270
270
270
270
270
269.999
269.999
269.999
269.999
269.999
270
270
270.001
270
270
270
270
270
270
270
270
270
270
270
270
270
270
269.999
269.999
269.999
269.999
269.999
269.999
270
270
270.001
270
270
270
270
270
270
270
270
270
270
270.001
270
270
270
269.999
269.999
269.999
269.999
269.999
269.999
270
270
270
270
270
270
270
270
270
270
270
270
270
270
270
270
270
269.999
269.999
269.999
269.999
269.999
269.999
270
270
270
270
270
270
270
270
270
270
270
270
270
270
270
270
270
269.999
269.999
269.999
269.999
270
270
270
270
270
270
270
270.001
270
270
270
270
270
270
270
270
270
270
270
270
269.999
270
270
270
269.999
270
270
270.001
270
270
270
270
270
270
270
270
270
270
270
270
270
270
270
270
270
270
270
269.999
270
270
270.001
270
270
270
270
270
270
269.999
269.999
270
270
270.001
270
270
270
270
270
270
270
270
269.999
270
270
270.001
270
270
270
270
270
270
269.999
269.999
270
270
270.001
270
270
270
270
270
270
270
270
270
270
270.001
270.001
270.001
270
270
269.987
269.986
269.984
269.981
269.931
269.944
269.958
269.972
270.088
270.076
270.067
270.063
270.13
270.118
270.107
270.09
270.005
270.029
270.035
270.053
269.859
269.887
269.948
270.035
270.082
270.069
270.047
270.023
270.315
270.324
270.299
270.168
270.305
270.253
270.217
270.174
270.236
270.195
270.169
270.18
270.275
270.354
270.371
270.359
270.042
270.187
270.293
270.296
270.014
270.07
270.147
270.166
270.005
270.008
270.033
270.054
269.984
269.989
269.993
270.001
269.904
269.929
269.949
269.966
269.761
269.781
269.812
269.854
269.641
269.61
269.617
269.663
269.641
269.549
269.506
269.522
269.746
269.641
269.573
269.552
269.867
269.803
269.753
269.722
269.945
269.933
269.917
269.902
269.984
269.995
269.999
269.999
270
270.01
270.016
270.018
270.005
270.006
270.007
270.008
270.003
270.001
270.001
270
270.001
270
270
270
270
270
270.001
270.001
270
270.001
270.001
270.002
270.001
270.001
270.001
270.002
270
270
270
270.001
270
270
270
270
270
270
270
270
269.999
269.999
269.999
269.999
269.999
269.999
269.999
270
269.999
269.999
270
270
269.999
269.999
270
270
270
270
270
270
270
270
270
270
270
270
270
270
270
270
270.001
270.001
269.996
269.983
269.971
269.975
269.987
269.998
269.997
270.226
270.411
270.272
270.234
270.207
270.211
270.226
270.262
270.326
270.35
270.051
269.988
269.978
269.976
269.969
269.981
269.993
269.999
270.068
270.347
270.351
270.225
270.231
270.247
270.252
270.255
270.282
270.361
270.415
270.053
269.988
269.991
269.995
269.98
269.993
270.026
270.048
270.158
270.379
270.288
270.226
270.27
270.314
270.316
270.295
270.307
270.441
270.49
270.045
269.986
270.053
270.023
269.992
270.009
270.09
270.162
270.249
270.355
270.288
270.294
270.325
270.366
270.365
270.314
270.337
270.569
270.536
270.043
269.986
270.059
270.027
270.005
270.046
270.111
270.215
270.352
270.371
270.329
270.347
270.372
270.392
270.375
270.304
270.393
270.703
270.494
270.044
269.989
270.031
270.027
270.015
270.036
270.095
270.175
270.322
270.406
270.385
270.388
270.399
270.386
270.341
270.264
270.431
270.649
270.304
270.046
269.995
270.048
270.026
270.015
270.004
270.039
270.14
270.26
270.364
270.408
270.418
270.403
270.349
270.275
270.214
270.31
270.219
270.127
270.049
270.002
270.049
270.057
270.027
270.013
270.011
270.064
270.139
270.236
270.324
270.364
270.349
270.273
270.183
270.138
270.118
270.073
270.082
270.045
270.006
270.099
270.095
270.059
270.014
270.012
270.021
270.047
270.105
270.184
270.266
270.282
270.183
270.104
270.041
270.028
270.036
270.049
270.029
270.006
270.101
270.093
270.152
270.025
270.006
270.008
270.016
270.031
270.067
270.145
270.165
270.099
270.049
270.012
270.009
270.016
270.011
270.003
270.003
270.221
270.309
270.293
270.065
270.009
270.002
269.998
269.997
270.013
270.039
270.06
270.048
270.022
270.006
269.996
269.992
269.992
269.998
270.005
270.304
270.199
270.076
270.015
270.019
270.008
269.993
269.971
269.977
269.996
270.013
270.018
270.014
270.012
270.012
270.013
270.013
270.006
270.005
270.212
270.08
270.014
270.03
270.016
270.003
270
269.995
269.996
270.007
270.009
269.989
269.979
269.991
269.998
270.004
270.01
270.008
270.002
270.111
270.024
270.016
270.042
270.025
270.011
270.015
270.018
270.013
270
269.969
269.954
269.962
269.972
269.985
269.995
270.003
270.004
269.998
270.047
270.011
270.012
270.032
270.014
269.979
269.966
269.966
269.97
269.974
269.979
269.981
269.972
269.967
269.978
269.987
269.997
270
269.995
270.008
270.008
270.007
270.018
270.022
270.027
270.021
270.004
270
270.038
270.057
270.029
269.996
269.976
269.986
269.992
269.992
269.999
269.995
269.983
269.998
270.002
270.004
270.006
270.021
270.045
270.047
270.039
270.135
270.237
270.125
270.057
270.015
270.025
270.017
269.995
269.992
269.996
269.906
269.955
269.974
269.981
269.99
270.005
270.033
270.064
270.057
270.132
270.271
270.256
270.177
270.104
270.13
270.055
270.02
269.997
269.995
269.748
269.853
269.919
269.956
269.988
270.006
270.02
270.051
270.067
270.079
270.201
270.304
270.279
270.213
270.155
270.119
270.062
270.018
269.991
269.6
269.739
269.867
269.949
270.002
270.021
270.023
270.037
270.063
270.06
270.135
270.239
270.254
270.221
270.203
270.18
270.11
270.039
269.998
269.587
269.701
269.853
269.96
270.017
270.033
270.031
270.033
270.053
270.056
270.082
270.168
270.226
270.201
270.183
270.175
270.153
270.057
270.005
269.72
269.775
269.888
269.978
270.021
270.031
270.032
270.032
270.043
270.054
270.059
270.097
270.167
270.152
270.101
270.099
270.177
270.089
270.008
269.89
269.9
269.949
269.995
270.016
270.023
270.028
270.031
270.036
270.05
270.056
270.072
270.118
270.118
270.055
270.024
270.195
270.167
270.009
269.994
269.989
269.995
270.003
270.009
270.018
270.031
270.038
270.036
270.044
270.054
270.067
270.094
270.096
270.051
270.006
270.18
270.249
270.006
270.018
270.014
270.007
270.002
270.004
270.018
270.041
270.057
270.053
270.045
270.05
270.062
270.076
270.075
270.041
270.021
270.2
270.245
270.006
270.009
270.007
270.001
269.997
270
270.018
270.052
270.083
270.088
270.069
270.054
270.053
270.058
270.055
270.017
270.053
270.234
270.273
270.003
270
269.999
269.995
269.993
269.999
270.027
270.077
270.127
270.144
270.119
270.079
270.053
270.041
270.038
269.992
270.114
270.31
270.367
270
269.999
269.997
269.992
269.991
270.01
270.076
270.162
270.219
270.227
270.186
270.122
270.066
270.035
270.028
269.975
270.197
270.453
270.594
270.011
270
269.997
269.989
269.992
270.052
270.181
270.268
270.282
270.254
270.202
270.136
270.075
270.038
270.019
269.972
270.345
270.705
271.01
270.034
270.001
269.995
269.986
270.001
270.116
270.272
270.282
270.207
270.153
270.127
270.099
270.063
270.042
269.999
270.008
270.684
271.204
271.276
270.036
270.001
269.996
269.984
270.008
270.149
270.308
270.248
270.098
270.052
270.052
270.055
270.045
270.037
269.986
270.159
270.901
271.391
271.299
270.016
270.001
269.998
269.986
269.997
270.116
270.29
270.255
270.051
270.028
270.028
270.029
270.028
269.994
270.089
270.367
271.044
271.508
271.339
270.006
270.001
270.001
269.993
269.986
270.039
270.209
270.297
270.11
270.021
270.031
270.022
270.016
269.998
270.226
270.472
271.115
271.631
271.422
269.999
270
270.001
270
269.99
269.989
270.066
270.255
270.263
270.077
270.042
270.039
270.051
270.138
270.329
270.524
271.173
271.793
271.498
269.997
270
270.001
270.002
269.999
269.985
269.984
270.057
270.252
270.261
270.166
270.128
270.148
270.274
270.425
270.599
271.268
271.99
271.41
269.996
270
270
270
270.004
269.998
269.973
269.958
270.027
270.169
270.242
270.258
270.282
270.394
270.512
270.716
271.419
272.175
270.969
269.998
270
270
269.999
270.006
270.002
269.97
269.944
269.99
270.096
270.199
270.278
270.378
270.529
270.611
270.916
271.636
272.25
270.33
269.993
270
270
270
270.007
269.99
269.954
269.991
270.194
270.431
270.563
270.624
270.696
270.674
270.765
271.262
271.9
272.131
270.42
269.982
270
270
270
270.006
269.969
269.962
270.141
270.51
270.78
270.846
270.828
270.741
270.684
271.106
271.704
272.077
271.807
271.153
269.981
270
270
270.001
270.002
269.952
270.039
270.41
270.786
270.849
270.727
270.611
270.574
270.975
271.612
271.96
272.079
271.614
272.363
270.012
270
270
270.001
269.996
269.951
270.185
270.706
270.896
270.757
270.593
270.531
270.783
271.475
271.877
271.976
272.138
271.61
273.182
270.196
270
270
270
269.992
269.966
270.33
270.875
270.877
270.697
270.568
270.562
270.949
271.653
271.903
271.968
272.215
271.683
272.739
271.096
)
;

boundaryField
{
    leftWall
    {
        type            zeroGradient;
    }
    rightWall
    {
        type            zeroGradient;
    }
    lowerWall
    {
        type            zeroGradient;
    }
    atmosphere
    {
        type            zeroGradient;
    }
    defaultFaces
    {
        type            empty;
    }
}


// ************************************************************************* //
