/*--------------------------------*- C++ -*----------------------------------*\
| =========                 |                                                 |
| \\      /  F ield         | OpenFOAM: The Open Source CFD Toolbox           |
|  \\    /   O peration     | Version:  2.3.0                                 |
|   \\  /    A nd           | Web:      www.OpenFOAM.org                      |
|    \\/     M anipulation  |                                                 |
\*---------------------------------------------------------------------------*/
FoamFile
{
    version     2.0;
    format      ascii;
    class       volScalarField;
    location    "1";
    object      T;
}
// * * * * * * * * * * * * * * * * * * * * * * * * * * * * * * * * * * * * * //

dimensions      [0 0 0 1 0 0 0];

internalField   nonuniform List<scalar> 
2268
(
270
270
270
270
270
270.002
270.001
270
270
270
270
270
270
270
270
270
270
270
270
270
270
270
270
270
270
270.001
270.003
270.004
270.001
270.003
270.001
270
270
270
270
270
270
270
270
270
270
270.001
270.001
270.002
270.002
270.001
270
270.001
270.003
270
269.986
269.975
269.993
270.003
270
270
270
270
270
270
270
270
270
270.001
270.001
270.002
270.002
270.002
270.002
270
270.002
269.999
269.982
269.948
269.935
269.964
270.002
270.003
270
270
270
270
270
270
270
270
270.001
270
269.999
269.997
269.991
270.002
270
270.002
269.996
269.97
269.94
269.912
269.922
269.991
270.007
270.002
270
270.001
270
270
270
270
270.001
269.999
269.993
269.989
269.982
269.973
269.994
270
270.002
269.997
269.976
269.965
269.919
269.887
269.958
270.005
270.003
270.001
270.002
270.002
270.001
270.001
270.001
269.996
269.989
269.98
269.973
269.966
269.962
269.978
270
270
269.999
269.992
269.988
269.934
269.871
269.907
269.982
269.997
269.996
269.998
269.999
269.999
269.996
269.988
269.979
269.973
269.968
269.962
269.962
269.967
269.964
270.057
270.013
270.004
270.007
269.994
269.942
269.87
269.867
269.944
269.981
269.984
269.984
269.98
269.974
269.967
269.965
269.966
269.967
269.966
269.966
269.975
269.973
269.96
269.995
269.985
269.989
269.993
269.992
269.99
269.986
269.984
269.993
270
270.001
270.002
270.002
269.997
269.983
269.981
269.989
269.995
269.999
269.991
269.988
269.996
269.999
269.998
269.995
269.989
269.985
269.994
270.002
270.006
270.006
270.005
269.997
269.986
269.985
269.992
269.998
270.005
269.99
269.991
270
269.999
270
269.997
269.99
269.988
270.002
270.004
270.002
270.003
270.004
269.998
269.992
269.993
269.996
269.994
270.002
269.991
269.993
270
269.998
270.001
269.999
269.991
269.995
270.002
270
270.001
270.001
270.001
270
269.998
270.002
270.004
270
270.003
269.991
269.994
269.998
269.999
270.003
269.998
269.994
270.001
270.008
270.014
270.016
270.009
270
270.002
270.009
270.019
270.013
270.005
270.006
269.992
269.994
269.996
269.999
270.003
269.998
269.998
270.007
270.02
270.04
270.061
270.044
270.024
270.023
270.042
270.044
270.025
270.011
270.006
269.993
269.994
269.996
270
270.003
270
270.004
270.018
270.039
270.069
270.098
270.09
270.079
270.065
270.06
270.047
270.032
270.019
270.007
269.993
269.994
269.996
270.001
270.003
270.003
270.013
270.034
270.062
270.088
270.094
270.078
270.081
270.076
270.069
270.053
270.037
270.025
270.015
270.203
270.118
270.015
269.981
269.984
269.956
269.889
269.891
269.954
269.976
269.974
269.966
269.956
269.953
269.96
269.97
269.98
269.985
269.986
269.983
269.979
269.976
269.97
270.198
270.233
270.171
270.078
270.029
269.996
269.962
269.95
269.98
269.981
269.976
269.975
269.98
269.989
270.002
269.999
269.992
269.981
269.965
269.955
269.961
269.981
269.987
270.104
270.124
270.133
270.088
270.035
270.005
269.995
269.987
269.996
269.995
269.993
269.987
269.984
269.99
270.001
269.997
269.977
269.951
269.928
269.917
269.941
269.985
269.999
270.088
270.039
270.009
270.01
270.014
270.005
270.003
269.998
269.994
269.984
269.971
269.959
269.95
269.945
269.949
269.954
269.949
269.937
269.954
269.967
269.939
269.982
270.013
270.072
269.979
269.977
269.989
269.998
270.004
270.005
270.008
270.016
270.03
270.053
270.091
270.147
270.165
270.094
270.024
269.992
270.054
270.365
270.205
269.938
269.935
270.044
270.067
269.974
269.989
269.988
269.995
270.006
270.007
270.007
269.999
269.967
269.952
270.152
271.578
271.849
271.605
271.529
271.408
271.363
271.629
270.674
269.993
269.845
270.034
270.065
269.98
269.998
269.993
269.992
269.996
269.999
270
269.996
269.986
269.989
270.133
270.472
271.095
271.903
272.557
272.736
272.689
272.555
271.507
270.342
269.817
269.761
270.07
269.983
270.003
269.998
269.997
269.996
269.996
269.996
269.996
269.999
270.013
270.053
270.048
270.192
270.624
271.194
271.618
271.978
273.162
273.249
271.387
270.151
269.575
270.077
269.989
270.015
270.005
270.003
270.005
270.01
270.013
270.011
270.005
269.995
269.927
269.854
269.924
270.048
270.092
270.179
270.67
272.712
275.397
274.312
271.855
270.055
270.08
269.994
270.025
270.02
270.003
269.995
269.997
270.003
270.001
269.983
269.943
269.94
270.201
270.793
271.373
271.684
271.82
271.988
272.869
275.397
277.327
276.123
273.016
270.081
269.996
270.053
270.084
270.052
269.967
269.929
269.918
269.918
269.935
269.958
270.235
271.112
272.622
274.163
275.293
275.964
276.045
275.714
274.815
275.886
279.685
280.025
270.081
269.999
270.107
270.237
270.354
270.312
270.166
269.997
269.862
269.887
270.224
271.249
273.46
276.268
278.633
280.444
281.714
282.086
281.189
279.229
277.336
276.888
278.893
270.082
270.016
270.177
270.432
270.807
270.964
270.88
270.857
270.992
271.499
272.855
275.365
278.625
281.411
283.576
285.43
286.841
287.529
287.151
285.621
283.463
281.596
280.66
270.084
270.043
270.208
270.577
271.236
271.704
271.886
272.442
273.525
275.132
277.288
279.593
281.491
283.079
284.886
286.912
288.902
290.46
291.162
290.757
289.388
287.62
285.997
270.084
270.053
270.184
270.578
271.51
272.406
273.059
274.232
275.7
276.977
277.785
278.123
278.439
279.26
280.852
283.134
285.916
288.781
291.148
292.502
292.657
291.813
290.398
270.083
270.074
270.13
270.482
271.708
273.066
274.069
275.065
275.468
275.034
274.116
273.315
273.087
273.544
274.671
276.587
279.378
282.889
286.599
289.758
291.75
292.38
291.885
270.083
270.082
270.11
270.443
272.022
273.576
274.295
274.207
273.193
271.821
270.761
270.246
270.137
270.297
270.695
271.574
273.256
275.997
279.681
283.661
287.051
289.189
289.92
270.082
270.087
270.137
270.599
272.439
273.637
273.508
272.412
271.03
270.147
269.916
270.006
270.085
270.047
269.976
269.98
270.321
271.438
273.743
277.101
280.716
283.654
285.348
270.079
270.09
270.239
270.932
272.677
273.13
272.245
270.946
270.124
270.047
270.323
270.545
270.607
270.564
270.491
270.339
270.113
270.027
270.638
272.448
275.157
277.889
279.848
270.072
270.086
270.36
271.287
272.566
272.322
271.188
270.278
270.1
270.367
270.598
270.617
270.556
270.563
270.608
270.657
270.579
270.283
269.966
270.319
271.666
273.502
275.068
270.067
270.087
270.573
271.503
272.191
271.576
270.592
270.163
270.335
270.579
270.611
270.479
270.407
270.377
270.402
270.536
270.685
270.633
270.25
269.886
270.136
270.956
271.844
270.066
270.247
270.73
271.507
271.755
271.059
270.323
270.213
270.489
270.677
270.643
270.547
270.471
270.393
270.363
270.421
270.582
270.692
270.508
270.053
269.741
269.834
270.126
270.061
270.292
270.74
271.359
271.415
270.765
270.209
270.199
270.441
270.596
270.6
270.546
270.46
270.398
270.387
270.425
270.538
270.67
270.604
270.227
269.749
269.483
269.427
270.059
270.125
270.645
271.156
271.196
270.651
270.211
270.146
270.259
270.357
270.387
270.366
270.352
270.368
270.404
270.446
270.532
270.654
270.63
270.313
269.823
269.446
269.273
270.057
270.083
270.535
270.949
271.037
270.662
270.341
270.225
270.229
270.265
270.298
270.335
270.371
270.404
270.431
270.453
270.523
270.637
270.62
270.329
269.868
269.512
269.362
270.056
270.071
270.322
270.692
270.84
270.669
270.499
270.408
270.384
270.387
270.39
270.384
270.377
270.378
270.387
270.411
270.501
270.618
270.583
270.285
269.874
269.608
269.545
270.055
270.069
270.144
270.365
270.556
270.53
270.453
270.405
270.369
270.322
270.286
270.276
270.284
270.3
270.323
270.381
270.508
270.61
270.515
270.191
269.863
269.723
269.746
270.055
270.067
270.101
270.202
270.312
270.325
270.318
270.273
270.219
270.202
270.238
270.296
270.341
270.364
270.391
270.48
270.61
270.617
270.396
270.066
269.871
269.853
269.917
270.05
270.062
270.083
270.132
270.185
270.201
270.19
270.144
270.135
270.209
270.328
270.438
270.502
270.531
270.577
270.649
270.648
270.47
270.179
269.972
269.929
269.972
270.02
270.036
270.052
270.072
270.1
270.125
270.12
270.09
270.071
270.12
270.241
270.381
270.503
270.589
270.641
270.657
270.606
270.448
270.215
270.036
269.984
270.007
270.038
270.048
270.015
270.035
270.052
270.063
270.062
270.047
270.025
270.034
270.088
270.182
270.3
270.408
270.483
270.501
270.455
270.34
270.179
270.058
270.016
270.026
270.041
270.041
270.029
270.003
270.014
270.024
270.021
270.009
270
269.997
270.006
270.032
270.08
270.142
270.204
270.239
270.229
270.178
270.105
270.047
270.027
270.03
270.034
270.028
270.017
270.007
270.001
270.002
270.003
270
269.996
269.994
269.993
269.993
269.998
270.011
270.031
270.05
270.06
270.054
270.038
270.025
270.021
270.023
270.022
270.016
270.007
270.001
269.998
270.001
270
270
269.999
269.999
269.998
269.996
269.993
269.992
269.992
269.995
269.999
270.003
270.005
270.006
270.008
270.01
270.009
270.005
270.001
269.998
269.998
269.998
270.002
270.001
270.002
270.002
270.002
270.001
269.999
269.997
269.995
269.994
269.993
269.994
269.995
269.997
269.999
270
270
269.999
269.998
269.997
269.998
269.999
270
270.002
270.002
270.002
270.002
270.002
270.002
270.001
270
269.999
269.998
269.997
269.996
269.996
269.996
269.997
269.997
269.997
269.997
269.998
269.999
270
270
270
270.002
270.002
270.001
270.001
270.001
270.001
270
270
270
269.999
269.999
269.998
269.997
269.997
269.997
269.998
269.998
269.999
270
270
270
269.999
269.999
270.001
270.001
270.001
270.001
270
270
270
270
269.999
269.999
269.998
269.998
269.998
269.998
269.998
269.999
270
270
270
270
269.999
269.999
269.999
270.001
270.001
270.001
270.001
270
270
270
269.999
269.999
269.998
269.998
269.998
269.998
269.998
269.999
270
270
270
269.999
269.999
269.999
269.999
269.999
270.001
270.001
270.001
270.001
270.001
270
270
269.999
269.999
269.998
269.998
269.998
269.998
269.999
269.999
270
270
269.999
269.999
269.998
269.998
269.999
269.999
270.001
270.002
270.002
270.001
270.001
270.001
270
269.999
269.999
269.999
269.999
269.999
269.999
269.999
270
270
269.999
269.999
269.999
269.998
269.999
269.999
269.999
270.001
270.002
270.002
270.002
270.001
270.001
270
270
270
270
270
270
270
270
270
270
269.999
269.999
269.999
269.999
269.999
269.999
270
269.964
269.969
269.972
269.973
269.983
269.985
269.985
269.987
269.996
270
270.003
270.004
270.009
270.024
270.025
270.019
270.022
270.024
270.027
270.028
270.015
270.019
270.019
270.036
269.798
269.935
269.929
269.991
269.639
269.685
269.838
269.868
269.47
269.61
269.691
269.719
270.884
270.113
269.735
269.628
277.868
274.9
272.529
271.072
281.611
282.088
280.325
277.354
280.645
281.245
281.839
281.898
285.079
284.782
284.602
284.318
289.235
288.552
287.911
287.16
291.015
290.229
289.327
288.224
289.674
289.061
288.202
287.044
285.773
285.491
284.873
283.917
280.655
280.689
280.376
279.745
275.854
276.027
275.927
275.579
272.357
272.503
272.486
272.317
270.334
270.398
270.394
270.324
269.442
269.452
269.455
269.446
269.227
269.232
269.256
269.293
269.341
269.369
269.419
269.483
269.574
269.623
269.683
269.747
269.806
269.856
269.903
269.945
269.971
270
270.021
270.035
270.044
270.049
270.048
270.044
270.044
270.037
270.029
270.021
270.019
270.012
270.007
270.002
270.001
269.999
269.998
269.998
269.998
269.998
269.998
269.999
269.999
269.999
270
270
270
270
270
270
270
270
270
270
270
270
270
270
269.999
270
270
270
269.999
270
270
270
269.999
270
270
270.001
270
270
270
270.001
270
270
270.001
270.001
269.977
269.987
269.995
270
270.004
270.007
270.022
270.04
270.029
270.022
270.051
270.082
270.088
270.082
270.073
270.059
270.045
270.029
270.021
269.988
269.991
269.994
269.998
270.001
270.008
270.016
270.017
270.006
270.004
270.017
270.037
270.066
270.09
270.072
270.062
270.059
270.04
270.02
270.003
270.001
269.999
269.997
269.998
270.009
270.014
270
269.996
269.997
270.003
270.034
270.066
270.083
270.068
270.061
270.059
270.052
270.022
270.013
270.006
270.002
270
270.001
270.006
270.002
270.005
270.012
270.011
270.012
270.053
270.072
270.063
270.06
270.059
270.054
270.052
270.027
270.028
270.018
270.007
270
270.001
270.002
270.007
270.031
270.042
270.033
270.033
270.059
270.054
270.053
270.058
270.056
270.048
270.044
270.025
270.041
270.04
270.025
270.012
270.007
270.016
270.037
270.057
270.052
270.052
270.049
270.05
270.049
270.053
270.056
270.049
270.036
270.034
270.021
270.023
270.065
270.052
270.04
270.037
270.051
270.071
270.071
270.062
270.052
270.045
270.046
270.047
270.052
270.047
270.034
270.02
270.028
270.019
269.934
270.062
270.057
270.088
270.085
270.096
270.105
270.095
270.072
270.043
270.035
270.036
270.037
270.04
270.025
270.016
270.011
270.018
270.019
269.807
269.977
269.963
270.091
270.103
270.108
270.127
270.074
270.048
270.026
270.007
270.005
270.008
270.009
270
270.02
270.015
270.016
270.022
269.712
269.812
269.88
269.944
269.995
269.982
269.998
270.027
270.029
270.004
269.956
269.931
269.952
269.962
270.053
270.079
270.002
269.98
269.999
270.149
269.509
269.791
269.899
269.936
269.974
270.007
270.026
270.014
269.965
269.908
269.862
269.958
270.044
270.182
270.238
270.22
270.246
270.362
273.49
270.719
270.153
269.864
269.936
269.983
270.012
269.999
269.94
269.864
269.828
269.919
270.005
270.102
270.289
270.484
270.668
270.89
271.106
280.482
276.769
272.714
270.515
270.219
270.139
270.025
269.902
269.753
269.775
269.824
269.94
270.005
270.069
270.24
270.506
270.762
270.964
271.153
283.232
280.82
277.499
273.695
271.852
270.669
269.945
269.707
269.706
269.752
269.821
269.909
269.986
270.033
270.1
270.287
270.527
270.799
271.199
285.426
282.312
278.401
274.627
272.282
270.578
269.812
269.649
269.684
269.753
269.827
269.905
269.98
270.037
270.063
270.106
270.252
270.613
271.246
285.861
281.999
277.823
274.298
271.685
270.255
269.757
269.674
269.73
269.81
269.885
269.949
270.004
270.051
270.088
270.092
270.122
270.56
271.291
284.508
280.514
276.517
273.305
271.161
270.129
269.797
269.769
269.829
269.899
269.96
270.006
270.041
270.07
270.105
270.118
270.139
270.778
271.323
281.676
278.136
274.784
272.26
270.728
270.048
269.867
269.877
269.928
269.982
270.028
270.06
270.081
270.095
270.12
270.135
270.317
271.046
271.349
278.101
275.427
272.985
271.25
270.308
269.968
269.922
269.954
269.994
270.043
270.078
270.096
270.107
270.114
270.135
270.167
270.495
271.042
271.364
274.563
272.858
271.371
270.426
270.015
269.935
269.963
269.992
270.032
270.081
270.098
270.101
270.106
270.114
270.143
270.187
270.526
270.957
271.374
271.794
270.934
270.264
269.939
269.888
269.946
269.988
270.005
270.06
270.098
270.084
270.074
270.079
270.098
270.142
270.191
270.501
270.896
271.381
270.131
269.866
269.747
269.787
269.897
269.98
269.998
270.011
270.084
270.088
270.049
270.042
270.05
270.079
270.139
270.205
270.554
270.825
271.397
269.453
269.523
269.669
269.836
269.956
270.003
269.996
270.016
270.093
270.059
270.023
270.036
270.043
270.078
270.137
270.299
270.837
270.759
271.431
269.4
269.595
269.792
269.934
270
270.008
269.991
270.021
270.081
270.035
270.032
270.063
270.064
270.096
270.216
270.521
270.842
270.714
271.482
269.613
269.795
269.932
269.999
270.013
270.004
269.99
270.019
270.059
270.03
270.06
270.112
270.125
270.207
270.391
270.553
270.355
270.72
271.548
269.848
269.955
270.008
270.017
270.009
270
269.991
270.01
270.038
270.032
270.078
270.18
270.261
270.373
270.464
270.374
270.219
270.843
271.612
269.993
270.025
270.024
270.011
270.003
269.999
269.994
270
270.016
270.028
270.071
270.196
270.327
270.38
270.32
270.174
270.307
271.012
271.674
270.039
270.029
270.012
270.002
270
270
269.998
269.996
269.989
270.017
270.056
270.1
270.188
270.207
270.151
270.167
270.46
271.204
271.739
270.03
270.012
270.001
269.998
270
270.001
270.002
269.994
269.964
269.995
270.09
270.094
270.099
270.127
270.161
270.32
270.732
271.454
271.805
270.009
270
269.998
269.999
270
270.002
270.005
269.987
269.952
270.001
270.166
270.259
270.267
270.29
270.358
270.626
271.123
271.734
271.863
269.999
269.998
269.999
270
270
270.003
270.002
269.973
269.967
270.098
270.319
270.467
270.518
270.562
270.684
271.076
271.562
271.967
271.9
269.998
269.999
270
270
270
270.004
269.992
269.965
270.04
270.287
270.53
270.623
270.684
270.828
271.082
271.567
271.906
272.089
271.898
269.999
270
270
269.999
270.002
270.002
269.976
269.995
270.199
270.513
270.672
270.665
270.794
271.122
271.494
271.936
272.049
272.109
271.856
270
270
270
270
270.004
269.993
269.975
270.101
270.421
270.686
270.69
270.638
270.928
271.427
271.791
272.104
272.027
272.104
271.779
270
270
270
270.001
270.004
269.978
270.016
270.288
270.64
270.759
270.637
270.633
271.087
271.645
271.919
272.147
271.954
272.124
271.667
270
270
270
270.003
269.998
269.971
270.124
270.515
270.787
270.744
270.583
270.676
271.234
271.757
271.946
272.158
271.899
272.154
271.551
270
270
270
270.005
269.985
269.988
270.288
270.714
270.836
270.691
270.557
270.741
271.349
271.808
271.95
272.169
271.873
272.171
271.48
270
270.001
270.001
270.005
269.97
270.041
270.47
270.838
270.818
270.641
270.553
270.804
271.435
271.837
271.956
272.179
271.862
272.176
271.464
270.001
270.001
270.001
270.002
269.962
270.118
270.622
270.887
270.778
270.61
270.559
270.853
271.498
271.856
271.961
272.186
271.855
272.18
271.471
270.001
270.001
270.001
269.998
269.962
270.194
270.723
270.895
270.747
270.595
270.565
270.889
271.541
271.868
271.964
272.191
271.847
272.184
271.474
270.001
270
270.001
269.995
269.967
270.247
270.778
270.892
270.73
270.588
270.57
270.912
271.565
271.873
271.965
272.193
271.842
272.188
271.472
270.001
270
270
269.993
269.97
270.272
270.801
270.889
270.723
270.585
270.572
270.921
271.575
271.875
271.965
272.194
271.84
272.189
271.471
)
;

boundaryField
{
    leftWall
    {
        type            zeroGradient;
    }
    rightWall
    {
        type            zeroGradient;
    }
    lowerWall
    {
        type            zeroGradient;
    }
    atmosphere
    {
        type            zeroGradient;
    }
    defaultFaces
    {
        type            empty;
    }
}


// ************************************************************************* //
