/*--------------------------------*- C++ -*----------------------------------*\
| =========                 |                                                 |
| \\      /  F ield         | OpenFOAM: The Open Source CFD Toolbox           |
|  \\    /   O peration     | Version:  2.3.0                                 |
|   \\  /    A nd           | Web:      www.OpenFOAM.org                      |
|    \\/     M anipulation  |                                                 |
\*---------------------------------------------------------------------------*/
FoamFile
{
    version     2.0;
    format      ascii;
    class       volScalarField;
    location    "0.3";
    object      T;
}
// * * * * * * * * * * * * * * * * * * * * * * * * * * * * * * * * * * * * * //

dimensions      [0 0 0 1 0 0 0];

internalField   nonuniform List<scalar> 
2268
(
270
270
270
270
270
270
270
270
270
270
270
270
270
270
270
270
270
270
270
270
270
270
270
270
270
270
270
270
270
270
270
270
270
270
270
270
270
270
270
270
270
270
270
270
270
270
270
270
270
270
270
270
270
270
270
270
270
270
270
270
270
270
270
270
270
270
270
270
270
270
270
270
270
270
270
270
270
270
270
270
270
270
270
270
270
270
270
270
270
270
270
270
270
270
270
270
270
270
270
270
270
270
270
270
270
270
270
270
270
270
270
270
270
270
270
270
270
270
270
270
270
270
270
270
270
270
270
270
270
270
270
270
270
270
270
270
270
270
270
270
270
270
270
270
270
270
270
270
270
270
270
270
270
270
270
270
270
270
270
270
270
270
270
270
270
270
270
270
270
270
270
270
270
270
270.001
270.001
270.001
270.001
270
270
270
270
270
270
269.999
269.998
269.998
269.998
269.998
269.998
269.998
269.999
270
270
270.001
270.001
270.002
270.002
270.001
269.999
269.998
270
269.999
269.998
269.997
269.997
269.997
269.997
269.998
269.998
269.999
270
270
270.001
270.002
270.002
270.001
269.999
269.999
269.999
270
270
269.998
269.998
269.997
269.997
269.997
269.998
269.998
269.999
270
270
270.001
270.001
270.001
270.001
270
270
270
270.001
270
269.999
269.998
269.997
269.997
269.997
269.998
269.999
270
270
270
270.002
270.002
270.001
270.001
270
270
270
270.001
270
270
269.999
269.998
269.998
269.998
269.999
270
270
270.001
270.001
270.001
270.001
270.001
270.001
270.001
270.001
270
270
269.999
269.999
269.999
269.998
269.998
269.999
270
270
270
270.001
270.001
270.001
270.001
270.001
270.001
270.001
270.001
270
269.999
269.999
269.999
269.999
269.998
269.999
269.999
270
270
270
270.001
270.001
270.002
270.002
270.002
270.001
270.001
270
269.999
269.999
270
269.999
269.999
269.998
269.999
270
270
270
270.001
270.001
270.001
270.002
270.001
270.001
270.001
270
269.999
269.999
270
270
270
270
270
270
270
270
270
270
270
270
270
270.001
270.002
270.002
270.003
270.003
270.002
270.002
270.002
270.001
270.001
270
270
270
270
270
270
270
270
270
270
270
270
270.001
270
269.998
269.995
269.991
269.988
269.988
269.99
269.993
269.998
270.002
270.003
270.003
270
270
270
270
270
270
270
270.001
270.001
270
269.992
269.978
269.959
269.94
269.923
269.914
269.912
269.921
269.932
269.944
269.959
269.975
269.989
270
270
270
270
270
270
270.001
270.004
270.003
269.989
269.962
269.929
269.904
269.897
269.915
269.951
269.989
270.002
269.998
269.984
269.966
269.954
269.953
270
270
270
270
270
269.999
270.002
270.005
269.997
269.985
270.007
270.095
270.228
270.402
270.599
270.8
270.963
271.042
270.889
270.633
270.402
270.232
270.128
270
270
270
270
270
270.001
269.995
269.975
269.99
270.15
270.569
271.181
271.852
272.328
272.439
272.328
272.155
272.274
271.674
271.277
271.032
270.779
270.493
270
270.001
270
269.999
270.002
270.01
269.965
269.883
270.08
270.812
271.73
272.244
272.235
271.894
271.444
271.085
270.884
270.89
271.197
271.44
271.426
271.281
271.066
270.002
270.001
270.001
269.999
270.007
270.003
269.835
269.967
271.226
272.87
273.393
272.715
271.68
270.835
270.326
270.117
270.125
270.215
270.499
271.106
271.503
271.552
271.425
270.001
270
270
270.002
270.014
269.906
269.702
270.989
273.938
275.144
273.455
271.235
270.039
269.757
269.794
269.801
269.838
269.932
270.248
270.86
271.312
271.369
271.135
270
270
270
270.01
269.997
269.706
269.846
273.031
276.949
275.88
271.762
269.494
269.314
269.76
269.909
269.903
269.904
269.992
270.31
270.696
270.832
270.642
270.372
270
270
270.003
270.021
269.942
269.485
270.313
275.251
279.197
275.987
270.807
269.22
269.558
269.915
270.024
270.041
270.085
270.15
270.268
270.312
270.246
270.101
269.983
270
270
270.005
270.028
269.873
269.331
270.726
276.604
280.869
277.52
271.943
269.779
269.626
269.75
269.915
269.973
270.038
270.063
270.053
269.986
269.934
269.92
269.937
270
270
270.007
270.033
269.834
269.258
270.676
276.686
282.332
280.953
275.207
271.255
269.915
269.645
269.645
269.723
269.828
269.861
269.884
269.933
269.973
269.998
270.013
270
270
270.008
270.035
269.848
269.243
270.165
275.666
283.055
285.082
280.555
274.98
271.746
270.377
269.842
269.657
269.65
269.728
269.814
269.882
269.934
269.975
270.004
270
270
270.006
270.036
269.904
269.3
269.527
273.923
282.281
288.157
286.924
281.353
276.251
273.189
271.571
270.69
270.199
269.961
269.893
269.918
269.971
270.013
270.028
270
270
270.004
270.033
269.971
269.444
269.094
271.967
279.935
288.784
292.068
288.881
283.418
279.001
276.163
274.333
273.058
272.14
271.489
271.023
270.664
270.371
270.157
270
270
270.001
270.026
270.02
269.646
269
270.331
276.655
286.578
293.996
294.988
291.442
287.131
283.813
281.418
279.451
277.601
275.768
273.979
272.36
271.091
270.309
270
270
269.999
270.015
270.04
269.838
269.191
269.363
273.393
282.28
291.988
297.322
297.403
294.998
292.513
290.473
288.385
285.697
282.222
278.267
274.54
271.768
270.275
270
270
269.999
270.006
270.035
269.966
269.507
269.099
270.976
277.358
286.83
294.886
298.72
299.281
298.749
298.02
296.578
293.504
288.438
282.108
276.119
271.95
270.006
270
270
269.999
270.001
270.02
270.02
269.79
269.303
269.735
273.259
280.426
288.641
294.733
298.011
299.753
300.822
300.634
297.883
291.954
283.977
276.483
271.621
269.688
270
270
270
270
270.007
270.025
269.959
269.65
269.451
270.733
274.788
280.979
287.111
291.777
295.232
297.953
299.253
297.531
291.872
283.58
275.803
271.081
269.505
270
270
270
270
270
270.012
270.02
269.913
269.641
269.7
271.125
274.411
278.796
283.169
287.178
290.834
293.36
293.037
288.669
281.412
274.52
270.575
269.492
270
270
270
270
269.999
270.002
270.021
270.026
269.895
269.611
269.582
270.467
272.495
275.328
278.61
282.109
285.083
285.948
283.381
278.129
272.989
270.203
269.6
270
270.001
270.001
270.001
270
269.999
270.007
270.033
270.027
269.852
269.482
269.211
269.479
270.506
272.262
274.599
277.016
278.357
277.451
274.556
271.551
270.005
269.764
270.001
270.001
270.001
270.001
270.001
270
269.999
270.009
270.036
270.025
269.857
269.502
269.138
269.035
269.38
270.236
271.457
272.491
272.594
271.663
270.526
269.96
269.911
270.001
270.001
270.001
270.001
270.001
270.001
269.999
269.996
270.007
270.043
270.069
269.996
269.772
269.457
269.178
269.07
269.228
269.599
269.943
270.063
270.023
269.987
269.992
270.001
270.001
270.001
270.001
270.001
270.001
270.001
269.998
269.995
270.006
270.049
270.109
270.124
270.033
269.822
269.536
269.273
269.176
269.324
269.631
269.899
270.009
270.013
270.001
270.001
270.001
270.001
270.001
270.001
270.001
270.001
269.999
269.993
269.993
270.018
270.069
270.119
270.121
270.037
269.869
269.698
269.653
269.772
269.934
270.008
270.008
270.001
270.001
270.001
270.001
270.001
270
270.001
270.001
270.002
270
269.991
269.98
269.982
270.008
270.054
270.097
270.1
270.051
269.988
269.965
269.983
270
270.001
270.001
270
270
270.001
270.001
270.001
270.001
270.001
270.001
270.002
270.003
269.999
269.99
269.981
269.984
270.006
270.043
270.068
270.061
270.029
270.004
269.998
269.999
270
270
270
270.001
270
270
270.001
270.001
270
270
270.002
270.005
270.006
270.002
269.993
269.985
269.989
270.005
270.018
270.016
270.005
269.999
269.999
270
270
270
270
270
270
270.001
270
270
270
270
270
270.002
270.004
270.004
270
269.994
269.991
269.995
270
270.001
269.999
269.999
270
270
270
270
270
270
270
270
270
270
270
270
270
270
270.001
270.002
270.002
270
269.997
269.997
269.999
269.999
269.999
270
270
270
270
270
270
270
269.999
269.999
270
270
270.001
270.001
270.001
270
270
270.001
270.001
270.001
270
269.999
269.999
269.999
270
270
270
270
270
270
270
269.999
269.999
269.999
270
270
270.001
270.001
270
270
270
270
270
270
270
269.999
270
270
270.001
270
270
270
270
270
269.999
269.999
270
270
270.001
270.001
270
270
270
270
270
270
270
270
270
270
270
270.001
270
270
270
270
270
269.999
269.999
270
270
270.001
270.001
270
270
270
270
270
270
270
270
270
270
270
270
270
270
270
270
270
270
269.999
270
270
270
270
270
270
270
270
270
270
270
270
270
270
270
270
270
270
270
270
270
270
270
270
270
270
270
270
270
270
270
270
270
270
270
270
270
270
270
270
270
270
270
270
270
270
270
270
270
270
270
270
270
270
270
270
270
270
270
270
270
270
270
270
270
270
270
270
270
270
270
270
270
270
270
270
270
270
270
270
270
270
270
270
270
270
270
270
270
270
270
270
270
270
270
270
270
270
270
270
270
270
270
270
270
270
269.999
269.999
269.999
269.999
270.002
270.002
270.001
270.001
269.996
270
270.002
270.003
269.958
269.963
269.969
269.975
270.072
270.047
270.028
270.014
270.313
270.223
270.162
270.119
270.875
270.741
270.637
270.563
271.267
271.143
271.015
270.871
270.721
270.515
270.371
270.242
270.17
270.051
269.967
269.926
269.932
269.914
269.909
269.915
269.958
269.972
269.986
269.997
270.021
270.026
270.03
270.034
270.021
270.029
270.034
270.038
270.033
270.029
270.023
270.017
270.052
270.002
269.97
269.957
269.979
269.872
269.837
269.854
269.738
269.639
269.673
269.769
269.448
269.455
269.606
269.78
269.301
269.444
269.678
269.867
269.35
269.576
269.811
269.952
269.516
269.746
269.922
269.996
269.712
269.885
269.983
270.008
269.875
269.967
270.004
270.005
269.969
269.999
270.004
270.001
270.001
270.002
270
269.999
270.004
270
269.998
269.998
270.001
269.999
269.999
269.998
270
269.999
269.999
269.998
269.999
269.999
269.999
269.998
269.999
269.999
269.999
269.998
269.999
269.999
269.999
269.998
269.999
269.999
269.999
269.998
269.999
270
269.999
269.999
270
270
270
269.999
270
270
270
270
270.001
270.001
270
270
270
270
270
270
270
270
270
270
270.001
270.001
270.001
270
270
270
270.001
270
270
270
270.001
270
269.999
270.002
270.001
270
270
270
270.001
270.001
270.001
270.001
270.001
270.001
270
270
270
269.999
270
270
270
270
269.999
270.002
270.002
270.001
270.001
270.001
270.001
270.001
270.003
270.005
270.002
270.001
270
270
270
270
270
270
270.003
270.003
270.003
270.002
270.001
270.001
270
270
270.001
270.001
270.002
270.005
270.001
270
270
270
270
270
270
269.983
269.991
269.996
269.999
270
270.001
270
270
270.001
270.001
270.001
270.001
270.001
270
270
270
270
270
270
270
269.992
269.991
269.993
269.995
269.998
269.999
270
269.999
270
270.001
270.001
270.001
270
270
270
270
270
270
270.078
270.04
270.017
270.004
269.997
269.996
269.996
269.998
269.999
269.999
270
270.001
270.001
270.001
270
270
270
270
270
270.479
270.281
270.121
270.055
270.026
270.009
270
269.997
269.997
269.998
269.998
269.999
270
270.001
270
270
270
270
270
270.616
270.429
270.351
270.316
270.18
270.069
270.025
270.005
269.998
269.997
269.997
269.998
269.999
270
270
270
270
270
270
270.086
269.985
269.948
269.981
270.074
270.103
270.063
270.03
270.007
269.998
269.996
269.996
269.997
269.998
269.999
270
270
270
270
269.875
269.827
269.827
269.883
269.993
270.085
270.104
270.068
270.031
270.006
269.997
269.995
269.995
269.997
269.998
269.999
270
270
270
269.935
269.946
269.94
269.947
269.999
270.078
270.134
270.127
270.087
270.023
270
269.994
269.993
269.995
269.997
269.998
270
270
270
270.01
270.019
270.018
270.006
270.004
270.038
270.093
270.14
270.138
270.055
270.008
269.994
269.991
269.992
269.995
269.998
269.999
270
270
270.04
270.044
270.044
270.041
270.03
270.02
270.035
270.087
270.153
270.105
270.021
269.995
269.989
269.99
269.993
269.996
269.999
270
270
270.04
270.037
270.029
270.023
270.021
270.013
270.002
270.028
270.12
270.144
270.03
269.995
269.987
269.987
269.992
269.996
269.999
270
270
270.012
270.01
270.009
270.007
270.007
270.004
269.989
269.994
270.078
270.16
270.032
269.995
269.985
269.985
269.99
269.995
269.999
270
270
269.968
269.991
270.005
270.009
270.008
270.006
269.996
269.992
270.045
270.104
270.025
269.995
269.986
269.984
269.99
269.995
269.999
270
270
269.922
269.985
270.008
270.013
270.01
270.007
270.002
270
270.023
270.046
270.014
269.996
269.989
269.986
269.991
269.996
269.999
270
270
269.909
269.994
270.015
270.016
270.013
270.009
270.005
270.003
270.011
270.018
270.007
269.997
269.992
269.988
269.992
269.997
269.999
270
270
269.941
270.009
270.02
270.02
270.017
270.012
270.008
270.006
270.007
270.009
270.003
269.998
269.995
269.989
269.993
269.998
270
270
270
269.983
270.017
270.023
270.025
270.022
270.016
270.011
270.008
270.008
270.005
270.001
269.998
269.996
269.99
269.995
269.998
270
270
270
270.006
270.019
270.028
270.031
270.027
270.02
270.014
270.011
270.007
270.003
270
269.998
269.996
269.991
269.996
269.999
270
270
270
270.01
270.02
270.033
270.036
270.028
270.019
270.014
270.012
270.007
270.004
270.001
269.999
269.995
269.992
269.997
269.999
270
270
270
270.009
270.022
270.037
270.037
270.026
270.015
270.012
270.012
270.009
270.006
270.003
269.999
269.994
269.994
269.998
269.999
270
270
270
270.006
270.023
270.038
270.038
270.025
270.014
270.011
270.012
270.01
270.008
270.005
269.997
269.994
269.995
269.999
269.999
269.999
270
270
270.005
270.022
270.038
270.039
270.026
270.012
270.01
270.011
270.011
270.009
270.005
269.997
269.995
269.997
269.999
269.999
269.999
270
270
270.004
270.02
270.04
270.044
270.026
270.008
270.009
270.011
270.011
270.01
270.005
269.997
269.996
269.998
269.999
269.999
269.999
270
270
270.003
270.018
270.044
270.054
270.029
270.007
270.007
270.01
270.011
270.009
270.003
269.997
269.998
269.999
269.999
269.999
269.999
270
270
270.001
270.019
270.052
270.07
270.043
270.016
270.007
270.008
270.01
270.007
270.001
269.998
269.999
270
270
269.999
269.999
270
270
270.001
270.02
270.061
270.085
270.054
270.024
270.007
270.007
270.009
270.008
270
269.999
269.999
270
270
269.999
269.999
270
270
270
270.021
270.069
270.102
270.067
270.028
270.006
270.005
270.007
270.008
270.002
269.999
270
270
269.999
269.999
269.999
270
270
270
270.02
270.075
270.124
270.092
270.035
270.014
270.005
270.005
270.007
270.005
270.001
270
270
269.999
269.999
269.999
270
270
269.999
270.017
270.079
270.149
270.137
270.044
270.018
270.004
270.004
270.004
270.005
270.003
270.001
270
269.999
270
270
270
270
269.998
270.013
270.079
270.175
270.189
270.09
270.032
270.004
270.003
270.003
270.003
270.004
270.002
270
270
270
270
269.999
270
269.998
270.009
270.076
270.196
270.237
270.145
270.051
270.003
270.002
270.002
270.002
270.002
270.002
270
270
270
270
269.999
270
269.997
270.004
270.067
270.208
270.279
270.172
270.012
269.999
270.002
270.002
270.001
270.002
270.002
270
270
270
270
269.999
270
269.998
269.999
270.051
270.202
270.316
270.218
270.02
269.998
270.002
270.002
270.001
270.002
270.001
270
270
270
270
270
270
269.999
269.997
270.029
270.174
270.346
270.274
270.045
269.991
270.002
270.002
270.002
270.002
270.001
270
270
270
270
270
270
269.999
269.997
270.009
270.121
270.357
270.417
270.165
269.981
269.997
270.003
270.001
270.001
270.001
270
270
270
270
270
270
270
269.998
269.998
270.059
270.296
270.581
270.484
270.101
269.978
270.005
270.001
270.001
270
270
270
270
270
270
270
270
270
269.997
270.016
270.171
270.565
270.886
270.669
270.052
269.997
270.001
270.001
270
270
270
270
270
270
270
270
270
269.999
270
270.065
270.371
270.905
271.149
270.24
269.999
270.001
270.001
270
270
270
270
270
270
270
270
270
270
269.999
270.007
270.119
270.542
270.851
270.245
270.006
270.001
270.001
270
270
270
270
270
270
270
)
;

boundaryField
{
    leftWall
    {
        type            zeroGradient;
    }
    rightWall
    {
        type            zeroGradient;
    }
    lowerWall
    {
        type            zeroGradient;
    }
    atmosphere
    {
        type            zeroGradient;
    }
    defaultFaces
    {
        type            empty;
    }
}


// ************************************************************************* //
