/*--------------------------------*- C++ -*----------------------------------*\
| =========                 |                                                 |
| \\      /  F ield         | OpenFOAM: The Open Source CFD Toolbox           |
|  \\    /   O peration     | Version:  2.3.0                                 |
|   \\  /    A nd           | Web:      www.OpenFOAM.org                      |
|    \\/     M anipulation  |                                                 |
\*---------------------------------------------------------------------------*/
FoamFile
{
    version     2.0;
    format      ascii;
    class       volScalarField;
    location    "0.95";
    object      T;
}
// * * * * * * * * * * * * * * * * * * * * * * * * * * * * * * * * * * * * * //

dimensions      [0 0 0 1 0 0 0];

internalField   nonuniform List<scalar> 
2268
(
270
270
270
270
270
270.001
270.001
270
270
270
270
270
270
270
270
270
270
270
270
270
270
270
270
270
270
270.001
270.003
270.004
270.003
270.003
270.001
270
270
270
270
270
270
270
270
270
270
270
270
270.001
270.002
270
270
270.001
270.003
270.002
269.992
269.986
269.996
270.003
270.001
269.999
270
270
270
270
270
270
270
270
270.001
270.002
270.002
270.003
270.002
270
270.001
270
269.985
269.957
269.948
269.972
270.001
270.005
270
270
270
270
270
270
270
270
270
270.001
270.001
270.001
269.998
270.003
270
270.002
269.996
269.972
269.939
269.918
269.935
269.987
270.008
270.004
270.001
270.001
270.001
270
270
270
270
270.001
269.998
269.994
269.991
269.982
270
270
270.002
269.997
269.977
269.954
269.906
269.894
269.951
269.995
270.001
269.999
270
270.002
270.002
270.001
270.001
270.001
269.997
269.987
269.978
269.973
269.963
269.99
269.999
270
270
269.994
269.973
269.9
269.86
269.898
269.956
269.98
269.985
269.989
269.994
269.997
270
269.999
269.993
269.982
269.971
269.963
269.961
269.958
269.975
270.004
270.005
270.006
270.007
269.972
269.893
269.846
269.874
269.935
269.966
269.972
269.973
269.973
269.975
269.977
269.976
269.972
269.968
269.965
269.964
269.968
269.972
269.964
269.995
269.985
269.986
269.989
269.988
269.985
269.982
269.987
269.999
270.001
270
270.002
270.001
270
269.994
269.979
269.981
269.989
269.994
269.992
269.987
269.993
269.995
269.992
269.989
269.985
269.99
270
270.001
270.005
270.007
270.006
270.002
269.997
269.985
269.986
269.996
270.006
269.991
269.99
269.998
269.998
269.994
269.993
269.989
269.994
270.004
270.007
270.006
270.004
270.005
270.004
270
269.992
269.99
269.992
270.003
269.991
269.993
270.001
269.999
269.996
269.996
269.993
270.001
270.006
270.003
269.999
270
270.002
270.003
270.001
269.998
269.998
269.996
270.002
269.992
269.994
270
269.998
269.999
270.001
270
270.005
270.003
270.002
270.009
270.012
270.004
270
270.002
270.002
270.002
270
270.005
269.993
269.995
269.998
269.998
270.002
270.005
270.004
270.004
270.005
270.022
270.06
270.06
270.029
270.01
270.004
270.006
270.008
270.005
270.008
269.993
269.994
269.997
269.998
270.004
270.008
270.005
270.003
270.008
270.037
270.072
270.099
270.082
270.059
270.039
270.032
270.024
270.009
270.006
269.995
269.995
269.998
269.999
270.003
270.01
270.004
270.002
270.006
270.006
270.038
270.104
270.09
270.087
270.08
270.066
270.041
270.013
270.002
270.055
269.987
269.981
269.983
269.97
269.905
269.889
269.937
269.975
269.983
269.981
269.973
269.961
269.952
269.948
269.955
269.966
269.976
269.983
269.99
269.996
269.987
269.961
270.329
270.188
270.059
270.026
270.012
269.984
270.015
269.989
269.997
269.996
269.994
269.99
269.983
269.978
269.979
269.986
270
270.017
270.019
270.013
270
269.985
269.976
270.214
270.203
270.122
270.058
270.017
269.996
269.969
269.981
270.002
270.003
270.003
270.001
269.998
270
270.006
270.005
270
270
269.997
269.993
269.987
269.979
269.979
270.141
270.123
270.06
270.008
269.983
269.974
269.979
269.988
270.004
270.007
270.006
270.002
269.998
269.992
269.984
269.977
269.971
269.973
269.97
269.966
269.96
269.958
269.978
270.117
270.069
270.014
269.99
269.991
269.983
269.98
269.985
270.001
270.009
270.008
270
269.991
269.979
269.976
269.979
269.974
269.949
269.919
269.874
269.865
269.898
269.957
270.098
270.041
269.996
270.012
270.01
270.003
269.992
269.983
269.978
269.978
269.984
269.994
269.998
269.996
270.017
270.111
270.143
270.113
270.079
269.991
269.949
269.897
269.934
270.088
270.021
270
270.034
270.027
270.021
270.01
270.004
269.998
269.992
269.991
269.997
270.008
270.034
270.073
270.085
270.085
270.206
270.31
270.308
270.332
270.188
269.995
270.087
270.006
270.018
270.078
270.107
270.105
270.062
270.011
270.008
270.011
270.009
270.008
270.017
270.041
269.993
269.871
269.859
270.153
270.472
270.792
271.083
271.301
270.296
270.086
269.998
270.032
270.132
270.224
270.234
270.156
270.07
270.015
270.014
270.018
270.019
270.005
269.913
269.765
269.68
269.73
269.895
270.503
271.719
272.48
272.116
271.032
270.086
270.022
270.136
270.187
270.4
270.631
270.677
270.403
270.139
270.056
270.03
270.018
269.951
269.829
269.771
269.92
270.071
269.898
269.744
270.475
272.209
273.388
273.072
270.086
270.088
270.232
270.238
270.602
271.211
271.56
271.215
270.713
270.377
270.147
270.025
269.975
269.971
270.166
270.718
271.205
271.077
270.418
270.013
270.779
272.63
274.507
270.084
270.189
270.29
270.257
270.774
271.767
272.474
272.398
272.065
271.676
271.25
270.887
270.727
270.913
271.499
272.207
272.852
273.158
272.446
271.343
271.005
271.685
273.913
270.082
270.149
270.302
270.25
270.902
272.131
273.025
273.413
273.682
273.862
273.935
273.932
274.014
274.321
274.887
275.547
276.096
276.461
276.364
274.675
273.411
272.937
273.481
270.082
270.127
270.281
270.249
271.027
272.231
273.002
273.565
274.143
274.763
275.45
276.185
276.989
277.91
278.932
279.949
280.76
281.16
281.061
280.405
278.781
276.925
275.454
270.087
270.133
270.254
270.288
271.127
272.01
272.326
272.489
272.61
272.823
273.294
274.143
275.503
277.362
279.62
282.026
284.193
285.685
286.15
285.494
283.981
281.792
279.848
270.075
270.165
270.252
270.351
271.12
271.512
271.293
270.96
270.619
270.417
270.462
270.883
271.81
273.542
276.292
279.939
283.919
287.406
289.644
290.208
289.195
287.283
285.318
270.061
270.242
270.274
270.393
270.996
270.954
270.468
270.103
269.916
269.858
269.812
269.776
269.883
270.499
272.235
275.576
280.337
285.52
289.853
292.416
292.979
292.006
290.375
270.057
270.433
270.334
270.394
270.839
270.555
270.114
270.035
270.189
270.326
270.346
270.233
269.997
269.769
270.08
271.873
275.813
281.374
287.059
291.417
293.744
294.173
293.321
270.056
270.329
270.439
270.397
270.737
270.363
270.057
270.19
270.432
270.574
270.631
270.619
270.498
270.208
269.803
270.088
272.329
276.917
282.688
287.931
291.512
293.184
293.193
270.056
270.164
270.474
270.468
270.712
270.35
270.074
270.264
270.494
270.566
270.598
270.66
270.69
270.582
270.201
269.768
270.499
273.477
278.248
283.265
287.185
289.47
290.049
270.056
270.104
270.346
270.482
270.683
270.478
270.193
270.243
270.414
270.484
270.498
270.549
270.67
270.706
270.493
269.969
269.891
271.426
274.718
278.679
282.061
284.21
284.89
270.055
270.087
270.234
270.358
270.54
270.566
270.408
270.307
270.337
270.379
270.393
270.454
270.614
270.733
270.609
270.174
269.81
270.42
272.351
274.954
277.292
278.794
279.219
270.055
270.079
270.164
270.308
270.425
270.535
270.555
270.489
270.42
270.383
270.373
270.438
270.611
270.755
270.664
270.287
269.854
269.982
270.929
272.318
273.565
274.304
274.396
270.058
270.07
270.122
270.227
270.367
270.516
270.603
270.638
270.607
270.55
270.514
270.56
270.699
270.795
270.676
270.318
269.891
269.794
270.127
270.654
271.086
271.269
271.169
270.042
270.07
270.115
270.186
270.273
270.38
270.518
270.649
270.71
270.709
270.696
270.733
270.818
270.826
270.64
270.276
269.888
269.707
269.703
269.743
269.745
269.687
269.59
270.013
270.08
270.153
270.227
270.286
270.332
270.409
270.535
270.658
270.736
270.787
270.841
270.877
270.791
270.533
270.169
269.859
269.671
269.526
269.387
269.276
269.217
269.222
269.999
270.05
270.118
270.197
270.284
270.351
270.405
270.487
270.605
270.72
270.808
270.859
270.829
270.653
270.355
270.046
269.841
269.688
269.533
269.409
269.353
269.374
269.456
269.997
270.009
270.046
270.112
270.219
270.339
270.428
270.509
270.606
270.704
270.77
270.767
270.65
270.418
270.151
269.972
269.865
269.762
269.671
269.629
269.649
269.712
269.797
269.999
269.99
270.001
270.036
270.117
270.246
270.375
270.474
270.557
270.614
270.618
270.541
270.38
270.18
270.041
269.974
269.922
269.875
269.855
269.871
269.912
269.96
270
270
269.99
269.99
269.998
270.03
270.106
270.216
270.318
270.383
270.401
270.364
270.268
270.144
270.059
270.023
270.003
269.985
269.98
269.993
270.016
270.036
270.047
270.048
270.001
269.997
269.994
269.993
269.996
270.016
270.061
270.118
270.158
270.162
270.129
270.079
270.043
270.031
270.027
270.023
270.024
270.032
270.043
270.049
270.046
270.038
270.027
270.002
270.001
270
269.999
269.995
269.993
269.999
270.012
270.025
270.028
270.022
270.017
270.018
270.021
270.022
270.024
270.029
270.033
270.032
270.026
270.019
270.011
270.004
270.002
270.003
270.003
270.002
270
269.997
269.994
269.993
269.994
269.997
270
270.003
270.006
270.008
270.01
270.013
270.014
270.013
270.009
270.004
270.001
269.998
269.997
270.002
270.003
270.002
270.002
270.002
270.001
269.999
269.997
269.996
269.997
269.998
269.998
269.999
269.999
270.001
270.001
270.001
270
269.998
269.997
269.997
269.998
269.998
270.002
270.002
270.002
270.001
270.001
270.001
270
270
269.999
269.999
269.998
269.997
269.997
269.997
269.997
269.997
269.997
269.997
269.998
269.998
269.999
269.999
269.999
270.002
270.002
270.001
270.001
270.001
270
270
270
270
269.999
269.999
269.998
269.997
269.997
269.997
269.998
269.998
269.999
269.999
270
270
269.999
269.999
270.001
270.001
270.001
270.001
270
270
270
270
270
269.999
269.999
269.998
269.998
269.998
269.998
269.999
270
270
270
270
269.999
269.999
269.999
270.001
270.001
270.001
270.001
270
270
270
270
269.999
269.998
269.998
269.998
269.998
269.999
269.999
270
270
270
269.999
269.999
269.999
269.999
269.999
270.001
270.001
270.001
270.001
270.001
270
270
269.999
269.999
269.998
269.998
269.998
269.999
269.999
270
270
270
269.999
269.999
269.999
269.999
269.999
269.999
270.001
270.002
270.002
270.001
270.001
270.001
270
269.999
269.999
269.999
269.999
269.999
269.999
270
270
270
270
269.999
269.999
269.999
269.999
269.999
269.999
270.001
270.002
270.002
270.002
270.001
270
270
269.999
269.999
269.999
269.999
270
270
270
270
270
269.999
269.999
269.999
269.999
269.999
269.999
270
270.001
270.002
270.002
270.001
270.001
270
270
270
270
270
270
270
270
270
270
270
269.999
269.999
269.999
269.999
269.999
270
270
269.956
269.965
269.971
269.974
269.971
269.974
269.976
269.981
269.981
269.983
269.986
269.99
269.986
269.986
269.989
269.994
269.991
269.995
269.997
270
269.981
269.999
270
270.004
269.941
269.988
270.005
270.008
269.923
269.929
269.991
270.013
270.282
269.917
269.903
269.968
271.819
270.542
270.069
269.888
274.191
272.887
271.427
270.498
275.251
275.285
274.318
272.972
274.648
275.715
276.453
276.28
275.504
276.219
277.141
277.94
279.051
279.008
279.393
280.14
284.258
283.793
283.591
283.674
289.164
288.522
287.994
287.622
292.334
291.582
290.775
289.937
292.538
291.787
290.802
289.62
289.684
288.988
287.959
286.648
284.653
284.048
283.118
281.915
278.974
278.474
277.737
276.809
274.128
273.761
273.273
272.694
270.956
270.751
270.516
270.265
269.503
269.45
269.41
269.386
269.254
269.296
269.355
269.428
269.539
269.604
269.674
269.747
269.863
269.904
269.941
269.974
270.023
270.033
270.039
270.041
270.044
270.039
270.032
270.025
270.018
270.012
270.007
270.003
270
269.998
269.998
269.997
269.997
269.997
269.998
269.999
269.999
269.999
269.999
270
269.999
270
270
270
269.999
270
270
270
269.999
270
270
270
269.999
270
270
270
269.999
270
270
270
270
270
270
270.001
270
270
270.001
270.001
270.001
270.001
270.001
270.001
269.986
269.996
270.001
269.999
269.998
270.011
270.006
270.014
270.019
270.007
270.022
270.081
270.082
270.077
270.073
270.063
270.039
270.017
270.017
269.985
269.993
269.999
269.996
269.995
270.008
270.017
270.013
270.007
270.003
270.003
270.052
270.085
270.092
270.089
270.066
270.04
270.016
270.02
269.993
269.996
270
270
270.001
270.009
270.01
269.999
269.996
269.998
270.012
270.06
270.083
270.093
270.106
270.061
270.035
270.016
270.015
270
270.005
270.005
270.004
270.003
270.001
269.998
269.996
270.001
270.012
270.032
270.067
270.076
270.09
270.097
270.054
270.026
270.016
270.014
270.005
270.01
270.01
270.009
270.006
270.001
269.998
270.007
270.017
270.041
270.047
270.069
270.074
270.087
270.085
270.048
270.019
270.024
270.017
270.012
270.017
270.021
270.022
270.018
270.021
270.032
270.05
270.049
270.05
270.055
270.068
270.071
270.078
270.07
270.036
270.015
270.054
270.027
270.023
270.035
270.039
270.051
270.06
270.064
270.073
270.079
270.075
270.071
270.071
270.072
270.06
270.061
270.055
270.03
270.02
270.074
270.009
270.023
270.038
270.042
270.06
270.094
270.116
270.124
270.121
270.106
270.089
270.063
270.051
270.049
270.061
270.049
270.027
270.035
270.191
270.052
270.019
270.036
270.027
270.046
270.07
270.106
270.132
270.122
270.084
270.054
270.043
270.043
270.053
270.057
270.039
270.017
270.062
270.388
270.47
269.93
270.023
270.021
270.028
270.046
270.07
270.096
270.056
270.038
270.037
270.041
270.049
270.056
270.042
270.011
269.981
270.054
270.43
270.818
269.949
269.905
270.024
270.018
270.049
270.043
270.037
270.029
270.024
270.024
270.037
270.047
270.036
270.005
269.964
269.956
270.036
270.396
270.957
270.901
269.997
269.878
270.011
270.017
270.021
270.022
270.018
270.003
269.981
269.982
269.986
269.958
269.936
269.946
269.97
270.076
270.463
271.035
274.116
271.633
270.123
270.003
269.984
270.005
270.011
269.997
269.949
269.875
269.793
269.825
269.89
269.968
269.997
270.012
270.136
270.549
271.05
277.831
275.673
272.925
270.758
270.079
270.024
269.998
269.945
269.868
269.803
269.778
269.843
269.926
269.992
270.033
270.047
270.134
270.531
271.063
280.9
279.944
276.499
272.433
271.313
270.518
270.052
269.838
269.761
269.743
269.768
269.838
269.911
269.981
270.045
270.077
270.098
270.462
271.091
283.814
282.478
279.063
275.103
272.544
270.828
269.977
269.693
269.656
269.701
269.773
269.853
269.933
270
270.063
270.109
270.083
270.423
271.136
286.676
283.968
279.888
275.688
272.498
270.641
269.85
269.637
269.66
269.749
269.84
269.918
269.984
270.034
270.085
270.136
270.097
270.527
271.193
287.93
283.908
279.158
274.935
272.006
270.436
269.824
269.702
269.758
269.848
269.927
269.989
270.036
270.07
270.109
270.15
270.163
270.831
271.255
286.88
282.205
277.508
273.754
271.376
270.226
269.849
269.817
269.88
269.948
270.006
270.052
270.084
270.103
270.134
270.157
270.28
271.026
271.295
283.761
279.3
275.285
272.388
270.741
270.054
269.893
269.917
269.967
270.018
270.066
270.097
270.112
270.12
270.147
270.164
270.379
270.969
271.327
279.416
275.863
272.968
271.109
270.215
269.944
269.938
269.976
270.012
270.064
270.101
270.11
270.109
270.113
270.149
270.169
270.432
270.908
271.353
275.032
272.734
271.088
270.216
269.93
269.927
269.977
269.999
270.041
270.098
270.103
270.087
270.078
270.091
270.146
270.178
270.519
270.92
271.37
271.714
270.622
270.013
269.833
269.879
269.964
269.997
270.005
270.071
270.109
270.07
270.047
270.047
270.077
270.146
270.225
270.757
270.905
271.382
269.933
269.69
269.689
269.815
269.939
269.999
269.998
270.01
270.094
270.09
270.027
270.03
270.047
270.089
270.155
270.398
271.054
270.819
271.403
269.425
269.578
269.769
269.92
269.994
270.007
269.991
270.016
270.098
270.058
270.009
270.05
270.076
270.119
270.241
270.534
270.741
270.728
271.448
269.579
269.781
269.926
269.996
270.011
270.002
269.988
270.017
270.081
270.039
270.017
270.079
270.126
270.221
270.41
270.546
270.318
270.745
271.507
269.856
269.962
270.008
270.014
270.007
269.998
269.989
270.01
270.055
270.036
270.023
270.101
270.212
270.342
270.431
270.33
270.244
270.902
271.569
270.009
270.025
270.018
270.006
270.001
269.998
269.992
270
270.024
270.035
270.028
270.082
270.202
270.271
270.24
270.15
270.345
271.103
271.63
270.034
270.018
270.005
270
270
269.999
269.997
269.995
269.99
270.022
270.053
270.042
270.084
270.124
270.129
270.206
270.537
271.329
271.693
270.013
270.002
269.998
269.999
270
270.001
270.002
269.992
269.963
269.995
270.106
270.122
270.113
270.141
270.188
270.379
270.832
271.586
271.756
269.999
269.997
269.998
270
270
270.002
270.005
269.983
269.951
270.017
270.193
270.31
270.329
270.347
270.41
270.715
271.232
271.84
271.812
269.998
269.999
269.999
270
270
270.004
270
269.967
269.977
270.144
270.38
270.519
270.566
270.612
270.748
271.186
271.656
272.027
271.856
269.999
269.999
270
269.999
270.001
270.005
269.986
269.965
270.082
270.366
270.593
270.653
270.712
270.876
271.165
271.669
271.958
272.103
271.869
270
270
270
269.999
270.003
269.999
269.97
270.023
270.282
270.595
270.696
270.663
270.828
271.194
271.579
271.996
272.058
272.103
271.838
270
270
270
270
270.005
269.985
269.984
270.176
270.528
270.734
270.671
270.633
270.989
271.507
271.843
272.125
272.014
272.102
271.763
270
270
270
270.002
270.001
269.971
270.065
270.408
270.728
270.757
270.603
270.651
271.166
271.707
271.936
272.154
271.937
272.132
271.649
270
270
270
270.005
269.99
269.978
270.224
270.645
270.825
270.709
270.56
270.714
271.312
271.796
271.95
272.166
271.884
272.166
271.533
270
270.001
270
270.005
269.973
270.024
270.423
270.811
270.826
270.651
270.55
270.786
271.416
271.832
271.952
272.178
271.86
272.182
271.47
270.001
270.001
270.001
270.003
269.962
270.104
270.602
270.885
270.785
270.613
270.556
270.844
271.489
271.853
271.958
272.187
271.851
272.186
271.462
270.001
270.001
270.001
269.998
269.96
270.19
270.723
270.898
270.748
270.595
270.563
270.886
271.539
271.867
271.962
272.193
271.844
272.19
271.468
270.001
270
270.001
269.995
269.965
270.251
270.786
270.893
270.728
270.587
270.568
270.912
271.569
271.874
271.964
272.196
271.839
272.193
271.469
270.001
270
270
269.993
269.969
270.277
270.809
270.889
270.72
270.584
270.571
270.923
271.581
271.877
271.965
272.198
271.836
272.195
271.468
)
;

boundaryField
{
    leftWall
    {
        type            zeroGradient;
    }
    rightWall
    {
        type            zeroGradient;
    }
    lowerWall
    {
        type            zeroGradient;
    }
    atmosphere
    {
        type            zeroGradient;
    }
    defaultFaces
    {
        type            empty;
    }
}


// ************************************************************************* //
