/*--------------------------------*- C++ -*----------------------------------*\
| =========                 |                                                 |
| \\      /  F ield         | OpenFOAM: The Open Source CFD Toolbox           |
|  \\    /   O peration     | Version:  2.3.0                                 |
|   \\  /    A nd           | Web:      www.OpenFOAM.org                      |
|    \\/     M anipulation  |                                                 |
\*---------------------------------------------------------------------------*/
FoamFile
{
    version     2.0;
    format      ascii;
    class       volScalarField;
    location    "0.85";
    object      T;
}
// * * * * * * * * * * * * * * * * * * * * * * * * * * * * * * * * * * * * * //

dimensions      [0 0 0 1 0 0 0];

internalField   nonuniform List<scalar> 
2268
(
270
270
270
270
270
270
270
270
270
270
270
270
270
270
270
270
270
270
270
270
270
270
270
270
270
270
270.001
270.003
270.004
270.004
270.002
270
270
270
270
270
270
270
270
270
270
270
270
270
270
270
270
270
270.001
270.002
270.003
270.001
270.001
270.003
270.002
270
270
270
270
270
270
270
270
270
270
270
270
270.001
270
270
270
270.001
270
269.99
269.975
269.975
269.994
270.004
270.001
269.999
270
270
270
270
270
270
270
270
270
270.001
270.003
270.001
270
270.001
270.002
269.999
269.979
269.948
269.937
269.967
270.001
270.006
270.001
270.001
270.001
270.001
270.001
270
270
270
270
270.001
270.002
270.003
270.003
269.999
269.998
270
270.001
269.985
269.945
269.908
269.932
269.988
270.009
270.002
269.998
269.999
270
270.001
270.001
270.001
270.001
270.001
270.001
270
269.994
270.001
270
270.003
270.008
270.011
269.996
269.946
269.89
269.896
269.957
269.989
269.986
269.981
269.981
269.983
269.989
269.996
269.999
269.999
269.997
269.992
269.986
269.973
269.99
270.004
269.998
269.995
269.992
269.962
269.905
269.859
269.853
269.904
269.945
269.959
269.964
269.962
269.958
269.957
269.966
269.977
269.983
269.982
269.974
269.965
269.954
269.971
269.999
269.99
269.986
269.984
269.983
269.983
269.988
269.991
269.995
270
270.001
270.001
270
270
269.997
269.989
269.976
269.978
269.984
269.996
269.989
269.987
269.988
269.985
269.982
269.99
269.996
270
270.001
269.999
269.999
269.999
270
270.001
269.998
269.989
269.983
269.987
269.995
269.99
269.994
269.994
269.989
269.987
269.995
270.002
270.003
270.004
270.001
269.998
270
270.002
270.001
270
269.997
269.99
270.008
269.995
269.993
269.999
269.996
269.99
269.989
269.999
270.005
270.008
270.013
270.009
270.008
270.01
270.011
270.008
270.003
270.001
269.995
270.005
269.996
269.995
270.001
269.998
269.992
269.991
270.002
270.01
270.017
270.022
270.02
270.017
270.015
270.013
270.01
270.006
270.004
269.998
270.006
269.997
269.996
270.001
269.998
269.992
269.993
270.004
270.014
270.02
270.022
270.019
270.016
270.014
270.012
270.011
270.008
270.003
270
270.007
269.998
269.998
270
269.998
269.993
269.994
270.006
270.016
270.021
270.023
270.02
270.015
270.009
270.009
270.01
270.01
270.008
270.006
270.009
270
270.001
269.999
269.996
269.993
269.996
270.01
270.019
270.021
270.021
270.018
270.014
270.007
270.005
270.006
270.007
270.009
270.012
270.013
269.951
269.986
269.997
269.987
269.989
269.952
269.871
269.844
269.896
269.952
269.979
269.987
269.981
269.967
269.95
269.943
269.95
269.961
269.967
269.961
269.955
269.959
269.954
270.4
270.198
270.208
270.186
270.162
270.101
270.033
270.015
270.027
270.03
270.022
270.01
270.005
270.002
269.996
269.992
269.992
269.993
269.985
269.972
269.981
269.995
269.988
270.397
270.254
270.247
270.197
270.151
270.098
270.055
270.03
270.015
270.007
269.995
269.973
269.962
269.978
270.02
270.037
270.026
270.01
269.996
269.992
269.998
270.002
270.009
270.164
270.103
270.083
270.07
270.062
270.057
270.051
270.048
270.053
270.048
270.024
269.992
269.974
269.968
269.979
270.004
270.001
269.992
269.99
269.993
270
270.005
270.003
270.025
270.031
270.023
270.033
270.056
270.09
270.092
270.106
270.1
270.09
270.058
270.02
269.994
269.975
269.966
269.964
269.976
269.985
269.985
270.002
270.009
270.012
270.002
270.077
270.016
270.029
270.053
270.08
270.12
270.154
270.165
270.161
270.14
270.102
270.065
270.034
270.003
269.983
269.968
269.963
269.965
269.971
270.007
270.016
270.017
270.001
270.008
269.943
270.089
270.173
270.227
270.229
270.196
270.19
270.19
270.177
270.149
270.115
270.083
270.053
270.026
269.999
269.987
269.98
269.988
270.017
270.018
270.015
270.001
270.061
270.073
270.325
270.433
270.279
270.083
270.084
270.191
270.218
270.21
270.186
270.154
270.125
270.101
270.074
270.047
270.028
270.016
270.016
270.019
270.015
270.01
270.012
270.127
270.157
270.492
270.871
271.01
270.753
270.351
270.041
270.095
270.246
270.239
270.21
270.154
270.134
270.125
270.099
270.067
270.043
270.03
270.029
270.03
270.019
270.013
270.15
270.174
270.554
271.136
271.537
271.528
271.538
271.276
270.52
270.157
270.307
270.318
270.26
270.151
270.14
270.143
270.119
270.077
270.046
270.041
270.059
270.058
270.007
270.157
270.165
270.524
271.1
271.478
271.244
271.294
272.115
272.158
271.476
270.636
270.35
270.501
270.308
270.153
270.152
270.155
270.115
270.056
270.01
270.027
270.094
270.115
270.196
270.206
270.472
270.885
271.243
270.901
270.31
270.926
272.261
272.866
272.249
271.098
270.493
270.715
270.354
270.158
270.141
270.132
270.09
270
269.927
269.95
270.209
270.293
270.323
270.482
270.68
270.957
270.958
270.388
269.97
270.961
272.758
273.508
272.632
271.23
270.71
270.932
270.531
270.181
270.081
270.08
270.051
269.935
269.856
269.949
270.343
270.434
270.549
270.58
270.677
270.902
270.867
270.247
270.16
271.811
273.793
274.034
272.625
271.293
271.137
271.347
270.939
270.299
270.01
269.959
269.949
269.83
269.752
270.225
270.42
270.542
270.509
270.452
270.654
270.948
270.672
270.078
270.959
273.443
275.037
274.398
272.81
272.042
272.232
272.236
271.492
270.428
269.961
269.861
269.812
269.661
270.403
270.389
270.449
270.368
270.237
270.38
270.797
270.812
270.175
270.428
272.828
275.579
276.344
275.371
274.408
274.265
274.264
273.517
272.194
270.77
270.114
269.975
269.86
270.696
270.407
270.318
270.176
270.035
270.213
270.687
270.786
270.188
270.12
272.189
275.585
277.941
278.46
278.185
278.032
277.79
276.844
275.104
273.251
271.797
271.17
270.942
270.495
270.444
270.25
270.052
269.989
270.277
270.705
270.684
270.081
269.912
271.624
275.102
278.634
280.974
282.211
282.817
282.749
281.666
279.691
277.185
275.123
273.785
273.533
270.248
270.574
270.362
270.19
270.246
270.53
270.717
270.475
269.895
269.743
271.1
274.234
278.254
282.043
285.021
287.007
287.819
287.251
285.439
282.939
280.538
278.809
278.255
270.108
270.636
270.567
270.504
270.567
270.644
270.542
270.194
269.721
269.592
270.559
273.101
277.001
281.523
285.836
289.268
291.374
291.949
291.085
289.237
287.126
285.468
284.797
270.017
270.455
270.565
270.573
270.547
270.447
270.258
269.976
269.628
269.462
270.021
271.884
275.259
279.788
284.683
289.074
292.329
294.173
294.641
294.017
292.787
291.511
290.453
269.981
270.189
270.307
270.319
270.267
270.178
270.068
269.896
269.627
269.39
269.593
270.803
273.419
277.35
281.994
286.528
290.288
292.943
294.44
294.903
294.536
293.556
291.904
269.985
270.029
270.072
270.076
270.061
270.045
270.017
269.919
269.701
269.427
269.383
270.033
271.784
274.696
278.385
282.219
285.632
288.294
290.081
290.969
290.954
290.007
287.977
269.997
269.988
269.991
269.994
270.003
270.018
270.024
269.974
269.818
269.574
269.41
269.636
270.564
272.305
274.669
277.259
279.673
281.639
283.016
283.715
283.643
282.72
280.897
270.001
269.992
269.99
269.992
270
270.015
270.029
270.014
269.931
269.768
269.593
269.564
269.865
270.599
271.708
273.002
274.254
275.287
275.99
276.29
276.116
275.433
274.291
270.001
270
269.999
269.999
270.001
270.008
270.021
270.027
270.004
269.929
269.807
269.686
269.644
269.749
270.011
270.376
270.759
271.078
271.277
271.321
271.185
270.874
270.452
270.001
270.002
270.002
270.001
270
270.002
270.009
270.02
270.028
270.014
269.959
269.856
269.722
269.588
269.482
269.419
269.389
269.379
269.372
269.358
269.334
269.31
269.315
270.001
270.002
270.002
270.002
270.001
270
270.001
270.009
270.022
270.033
270.024
269.977
269.883
269.753
269.608
269.474
269.369
269.302
269.273
269.282
269.325
269.403
269.518
270.001
270.002
270.002
270.002
270.001
270
269.999
270.001
270.008
270.02
270.029
270.023
269.992
269.938
269.869
269.801
269.747
269.715
269.708
269.726
269.766
269.824
269.891
270.001
270.002
270.002
270.002
270.002
270.001
269.999
269.999
270
270.005
270.013
270.021
270.024
270.021
270.013
270.003
269.995
269.992
269.993
270
270.012
270.025
270.034
270.001
270.001
270.001
270.002
270.001
270.001
270
269.999
269.998
269.998
270.001
270.007
270.016
270.026
270.035
270.043
270.048
270.051
270.051
270.049
270.045
270.038
270.029
270.001
270.001
270.001
270.001
270.001
270
270
270
269.999
269.998
269.998
269.999
270.003
270.008
270.014
270.02
270.023
270.024
270.023
270.02
270.015
270.01
270.004
270.001
270.001
270.001
270.001
270
270
270
270
270
269.999
269.998
269.997
269.998
269.998
269.999
270
270.001
270.001
270.001
270
269.999
269.998
269.997
270.001
270.001
270
270
270
270
270
270
270
269.999
269.999
269.998
269.998
269.997
269.997
269.997
269.997
269.997
269.997
269.997
269.998
269.998
269.998
270.001
270.001
270.001
270
270
270
270
270
269.999
269.999
269.999
269.998
269.998
269.998
269.999
269.999
269.999
269.999
269.999
269.999
269.999
269.999
269.999
270.001
270.001
270.001
270.001
270
270
270
269.999
269.999
269.998
269.998
269.999
269.999
269.999
270
270
270
270
270
270
269.999
269.999
269.999
270
270.001
270.001
270.001
270.001
270
270
269.999
269.999
269.998
269.999
269.999
269.999
270
270
270
270
270
269.999
269.999
269.999
269.999
269.999
270
270.002
270.002
270.001
270.001
270
270
269.999
269.999
269.999
269.999
269.999
269.999
270
270
270
269.999
269.999
269.999
269.999
269.999
269.999
269.999
270.001
270.002
270.002
270.001
270.001
270
270
269.999
269.999
270
270
270
270
270
270
270
269.999
269.999
269.999
269.999
269.999
269.999
269.999
270.001
270.002
270.002
270.001
270.001
270
270
270
270
270
270
270
270
270
270
270
269.999
269.999
269.999
269.999
269.999
269.999
270
270.001
270.001
270.001
270.001
270
270
270
270
270
270
270
270
270.001
270
270
269.999
269.999
269.999
269.999
269.999
269.999
269.999
270
270.001
270.001
270.001
270.001
270.001
270
270
270.001
270
270
270
270.001
270.001
270
270
270
269.999
269.999
270
270
269.999
270
270
269.957
269.965
269.973
269.978
269.977
269.968
269.965
269.973
270.004
269.982
269.973
269.985
269.996
269.988
269.987
269.987
269.984
269.981
269.977
269.968
269.972
269.972
269.968
269.964
269.967
269.97
269.976
269.984
269.997
269.97
269.983
269.99
270.022
269.983
269.987
269.99
269.962
269.951
269.964
269.976
270.072
270.053
270.039
270.026
270.535
270.611
270.503
270.351
270.3
270.629
270.71
270.69
270.005
270.621
271.099
271.414
269.828
270.382
271.023
271.776
270.18
270.606
271.121
272
271.497
271.844
272.389
273.341
273.884
274.449
275.231
276.334
278.484
279.06
279.872
280.841
284.779
284.999
285.214
285.33
289.707
289.135
288.334
287.247
290.288
288.926
287.272
285.35
285.959
284.337
282.524
280.59
279.19
277.909
276.571
275.232
273.306
272.626
271.969
271.361
270.132
269.945
269.794
269.683
269.345
269.386
269.446
269.52
269.616
269.685
269.754
269.821
269.939
269.966
269.989
270.006
270.037
270.036
270.032
270.027
270.021
270.015
270.01
270.006
270.001
269.999
269.998
269.997
269.997
269.998
269.998
269.998
269.999
269.999
269.999
269.999
269.999
270
270
270
269.999
270
270
269.999
269.999
269.999
269.999
269.999
269.999
270
270
270
270
270
270
270
270
270
270.001
270.001
270
270.001
270.001
270.001
270.001
270.001
270.001
270.001
269.997
269.999
269.994
269.994
269.993
270
270.015
270.013
270.007
270.002
270.001
270.002
270.002
270.001
270
269.999
270
270.005
270.012
269.989
270.005
269.993
269.995
269.997
270.001
270.001
269.998
269.999
270.001
270
269.999
269.998
269.996
269.991
269.989
269.992
269.997
270.002
269.997
269.991
269.988
269.997
269.999
270.004
270.007
270.01
270.017
270.013
270.008
270.004
269.998
269.989
269.987
269.988
269.985
269.988
269.994
269.978
269.971
269.986
270
270.002
270.01
270.016
270.02
270.029
270.013
270.008
270.003
270
269.995
270.003
270.005
269.992
269.979
269.973
269.961
269.967
269.986
270.002
270.005
270.018
270.026
270.028
270.03
270.016
270.015
270.009
270.011
270.013
270.029
270.031
270.009
269.989
269.978
269.971
269.977
269.985
270.001
270.008
270.029
270.043
270.047
270.044
270.037
270.063
270.07
270.055
270.053
270.065
270.049
270.015
269.996
269.981
269.991
269.987
269.987
269.997
270.01
270.039
270.057
270.077
270.083
270.073
270.098
270.108
270.105
270.092
270.066
270.039
270.01
270.011
269.989
269.996
269.998
269.995
269.997
270.008
270.023
270.042
270.078
270.118
270.106
270.097
270.091
270.092
270.078
270.046
270.02
270.005
270.016
270.007
269.992
269.998
270.005
270.005
270.008
270.016
270.026
270.049
270.113
270.123
270.108
270.081
270.081
270.06
270.03
270.011
270.003
270.012
270.036
269.985
269.991
270
270.016
270.016
270.02
270.02
270.024
270.05
270.082
270.073
270.067
270.07
270.042
270.017
270.007
270.003
270.027
270.078
270.011
269.996
269.996
270
270.014
270.023
270.028
270.037
270.041
270.049
270.047
270.065
270.05
270.027
270.011
270.008
270.002
270.082
270.142
270.167
270.042
270.014
270
269.996
270.004
270.021
270.027
270.042
270.056
270.071
270.057
270.023
270.006
269.999
270.011
270.001
270.142
270.27
270.553
270.316
270.078
270.012
269.999
269.997
269.997
270.002
270.024
270.051
270.046
270.019
270.008
270.003
270.004
270.028
270.003
270.157
270.525
271.493
271.048
270.256
270.063
270.031
269.997
269.987
269.99
270.001
270.024
270.014
270.005
269.999
269.998
270
270.034
270.007
270.18
270.723
272.698
272.693
271.117
270.191
270.1
270.04
270.012
269.975
269.985
270.006
269.99
269.985
269.981
269.978
269.994
270.056
270.014
270.201
270.872
273.845
274.615
272.724
270.718
270.143
270.018
269.944
269.904
269.928
269.956
269.936
269.919
269.931
269.968
270.016
270.087
270.02
270.232
270.969
275.488
276.496
274.459
271.667
270.272
269.923
269.842
269.791
269.773
269.789
269.823
269.879
269.942
269.995
270.045
270.113
270.023
270.283
271.024
278.247
278.476
275.723
272.398
270.476
269.831
269.703
269.697
269.721
269.77
269.839
269.913
269.972
270.018
270.072
270.137
270.026
270.373
271.041
281.678
280.098
276.251
272.582
270.545
269.81
269.651
269.672
269.74
269.819
269.894
269.956
270.005
270.049
270.108
270.16
270.029
270.538
271.028
284.228
280.484
275.866
272.321
270.488
269.835
269.708
269.753
269.833
269.904
269.961
270.008
270.051
270.091
270.147
270.172
270.047
270.817
271.002
284.281
279.238
274.713
271.757
270.346
269.878
269.817
269.872
269.933
269.979
270.022
270.065
270.101
270.13
270.179
270.168
270.121
271.138
270.986
281.644
276.764
273.13
271.044
270.157
269.917
269.919
269.962
269.993
270.031
270.078
270.114
270.133
270.15
270.196
270.147
270.311
271.176
271.008
277.424
273.829
271.514
270.379
270
269.953
269.983
269.999
270.024
270.081
270.124
270.131
270.127
270.145
270.198
270.127
270.617
270.877
271.074
273.292
271.368
270.346
269.984
269.946
269.987
270.003
270.006
270.061
270.127
270.131
270.101
270.09
270.129
270.19
270.154
270.924
270.747
271.172
270.609
270.026
269.855
269.895
269.97
270.005
269.997
270.016
270.108
270.143
270.091
270.049
270.06
270.129
270.17
270.274
271.146
270.86
271.291
269.63
269.702
269.839
269.949
270
270.003
269.989
270.037
270.14
270.119
270.036
270.025
270.066
270.136
270.137
270.469
271.139
270.987
271.375
269.663
269.838
269.951
269.998
270.007
269.995
269.988
270.052
270.143
270.083
270.007
270.035
270.079
270.107
270.237
270.659
270.86
270.962
271.423
269.908
269.981
270.006
270.007
270.002
269.991
269.99
270.049
270.123
270.064
270.002
270.034
270.065
270.14
270.315
270.474
270.495
270.915
271.451
270.017
270.016
270.007
270.002
270
269.992
269.991
270.031
270.09
270.064
270.004
270.014
270.052
270.137
270.235
270.206
270.325
271.012
271.481
270.017
270.005
270
270
270
269.995
269.991
270.008
270.045
270.066
270.025
270.01
270.045
270.102
270.175
270.215
270.439
271.249
271.509
270.001
269.998
269.999
270.001
270.001
269.998
269.994
269.99
269.993
270.048
270.081
270.049
270.068
270.119
270.171
270.321
270.699
271.548
271.537
269.998
269.999
270
270.001
270.001
270.001
270
269.977
269.957
270.034
270.165
270.191
270.18
270.216
270.28
270.56
271.06
271.833
271.573
269.999
269.999
270
270
270.001
270.004
270
269.963
269.966
270.114
270.314
270.418
270.436
270.446
270.537
270.965
271.475
272.036
271.622
269.999
270
270
270
270.001
270.006
269.986
269.958
270.065
270.332
270.546
270.616
270.635
270.693
270.92
271.462
271.833
272.117
271.684
270
269.999
270
269.999
270.004
270
269.966
270.013
270.277
270.59
270.7
270.681
270.764
270.998
271.38
271.88
272.024
272.107
271.748
269.999
270
270
270.001
270.005
269.983
269.98
270.181
270.544
270.743
270.682
270.649
270.937
271.378
271.755
272.092
272.045
272.085
271.782
269.999
270
270
270.003
269.999
269.968
270.081
270.444
270.75
270.749
270.594
270.659
271.164
271.679
271.922
272.154
271.978
272.103
271.736
270
270.001
270
270.006
269.984
269.987
270.282
270.702
270.828
270.683
270.546
270.735
271.355
271.816
271.953
272.173
271.901
272.153
271.621
270.001
270.001
270.001
270.005
269.966
270.059
270.516
270.857
270.805
270.624
270.546
270.82
271.47
271.853
271.954
272.188
271.853
272.193
271.505
270.001
270.001
270.001
270
269.958
270.162
270.698
270.902
270.757
270.596
270.558
270.878
271.535
271.866
271.958
272.198
271.835
272.205
271.456
270.001
270.001
270.001
269.995
269.962
270.248
270.794
270.897
270.726
270.585
270.566
270.912
271.575
271.876
271.963
272.203
271.83
272.207
271.457
270.001
270
270.001
269.993
269.967
270.288
270.827
270.889
270.715
270.58
270.569
270.928
271.593
271.88
271.964
272.205
271.827
272.208
271.46
)
;

boundaryField
{
    leftWall
    {
        type            zeroGradient;
    }
    rightWall
    {
        type            zeroGradient;
    }
    lowerWall
    {
        type            zeroGradient;
    }
    atmosphere
    {
        type            zeroGradient;
    }
    defaultFaces
    {
        type            empty;
    }
}


// ************************************************************************* //
