/*--------------------------------*- C++ -*----------------------------------*\
| =========                 |                                                 |
| \\      /  F ield         | OpenFOAM: The Open Source CFD Toolbox           |
|  \\    /   O peration     | Version:  2.3.0                                 |
|   \\  /    A nd           | Web:      www.OpenFOAM.org                      |
|    \\/     M anipulation  |                                                 |
\*---------------------------------------------------------------------------*/
FoamFile
{
    version     2.0;
    format      ascii;
    class       volScalarField;
    location    "0.75";
    object      T;
}
// * * * * * * * * * * * * * * * * * * * * * * * * * * * * * * * * * * * * * //

dimensions      [0 0 0 1 0 0 0];

internalField   nonuniform List<scalar> 
2268
(
270
270
270
270
270
270
270
270
270
270
270
270
270
270
270
270
270
270
270
270
270
270
270
270
270
270
270
270
270.001
270.002
270.003
270.001
270
270
270
270
270
270
270
270
270
270
270
270
270
270
270
270
270
270
270.001
270.003
270.005
270.006
270.006
270.001
270
270
270
270
270
270
270
270
270
270
270
270
270
270
270
270
270
270.002
270.002
269.995
269.987
270
270.005
270
270
270
270
270
270
270
270
270
270
270
270
270
270
270
270
270
270.003
270.003
269.979
269.945
269.963
270.001
270.003
270
270
270
270
270
270
270
270
270
270
270
270
269.999
269.999
270
270.002
270.003
269.995
269.966
269.91
269.898
269.972
270.004
270.002
270
270
270
270
270
270
270
270
270
270.002
270.001
270.004
270.008
270.005
269.998
269.983
269.961
269.939
269.89
269.838
269.913
269.992
270.005
270.003
270.001
270.001
270
270
270
270
270.001
270.003
270.003
270.002
269.978
269.949
269.924
269.911
269.904
269.904
269.908
269.871
269.793
269.829
269.936
269.995
270.007
270.007
270.004
270.005
270.005
270.004
270.002
270
270
269.994
269.997
270.003
269.999
269.996
269.995
269.994
269.992
269.99
269.997
270
269.988
269.991
269.99
269.986
269.983
269.982
269.98
269.976
269.976
269.988
270.002
269.996
269.991
269.988
269.984
269.98
269.98
269.989
269.995
269.998
270.008
270.009
270.006
270.006
270.007
270.006
270
269.987
269.963
270.002
269.997
269.997
269.992
269.987
269.978
269.981
269.99
270.001
270.016
270.021
270.012
270.008
270.007
270.005
270.005
270.024
270.022
270.006
270.002
269.999
270.001
269.995
269.989
269.979
269.985
269.995
270.014
270.028
270.015
270.008
270.01
270.009
270.003
270.003
270.002
270.02
270.034
270.003
270.001
270.001
269.996
269.99
269.98
269.992
270.009
270.028
270.024
270.013
270.019
270.017
270.008
270.001
270.003
270.002
270.013
270.031
270.004
270.005
269.999
269.994
269.991
269.982
269.998
270.019
270.032
270.021
270.024
270.031
270.021
270.002
269.997
270.003
270.004
270.009
270.029
270.004
270.005
269.995
269.993
269.993
269.984
270.004
270.029
270.032
270.023
270.034
270.024
270.015
269.997
269.997
270.004
270.007
270.01
270.031
270.007
269.994
269.991
269.995
269.997
269.985
270.012
270.049
270.033
270.029
270.024
270.01
270.006
269.995
269.999
270.006
270.01
270.015
270.03
270.069
270.266
270.33
270.253
270.168
270.147
270.151
270.056
269.924
269.857
269.858
269.889
269.917
269.933
269.941
269.952
269.966
269.974
269.976
269.972
269.969
269.96
269.969
271.504
271.431
271.346
271.171
270.912
270.656
270.495
270.381
270.289
270.207
270.113
270.037
270.006
269.988
269.952
269.901
269.887
269.915
269.947
269.948
269.939
269.938
269.944
270.974
270.042
269.697
269.863
269.987
270.073
270.161
270.196
270.23
270.275
270.28
270.245
270.178
270.129
270.124
270.135
270.136
270.113
270.072
270.032
270.006
269.997
269.99
270.996
270.106
269.745
269.708
269.652
269.69
269.803
269.898
269.975
270.026
270.02
270.015
270.012
270.011
270.022
270.049
270.07
270.075
270.06
270.035
270.037
270.04
270.039
271.113
270.455
270.392
270.603
270.775
270.748
270.385
270.007
270.121
270.27
270.294
270.23
270.14
270.046
269.997
269.998
269.99
269.995
270.007
270.018
270.029
270.037
270.033
271.321
270.889
270.992
271.298
271.622
272.003
272.367
272.025
270.716
270.107
270.246
270.268
270.095
270.023
270.053
270.051
270.014
270.003
270.001
270.007
270.02
270.033
270.036
271.678
271.367
271.33
271.27
271.2
271.539
272.556
274.074
272.401
270.455
270.25
270.394
270.274
270.076
270.06
270.079
270.048
270.017
269.995
269.989
269.999
270.018
270.041
272.024
271.782
271.502
270.986
270.478
270.522
271.645
275.031
273.747
270.837
270.268
270.638
270.639
270.292
270.103
270.104
270.104
270.06
270.024
269.995
269.988
269.998
270.002
271.819
271.792
271.427
270.729
270.078
269.849
270.997
275.556
274.779
271.054
270.134
270.905
271.321
270.886
270.292
270.095
270.117
270.111
270.072
270.025
269.992
269.985
269.989
270.983
271.257
270.981
270.418
269.897
269.546
270.864
276.102
276.187
271.893
270.273
271.355
272.476
272.121
270.914
270.184
270.098
270.127
270.111
270.071
270.025
269.992
269.983
270.247
270.552
270.411
270.136
269.802
269.432
270.975
276.483
278.051
274.225
271.755
272.631
274.322
274.078
272.125
270.527
270.068
270.116
270.14
270.117
270.081
270.04
270.005
269.972
270.104
270.071
270.002
269.749
269.389
270.99
276.302
279.617
277.795
275.237
275.43
277.043
276.678
273.957
271.299
270.15
270.064
270.147
270.151
270.145
270.118
270.082
269.956
269.977
269.992
269.984
269.732
269.367
270.718
275.372
280.036
281.155
280.021
279.769
280.638
279.789
276.324
272.549
270.435
270.037
270.11
270.121
270.142
270.146
270.142
269.987
269.984
270.009
270.003
269.761
269.368
270.216
273.861
279.055
282.891
284.363
284.726
284.852
283.346
279.178
274.229
270.93
270.038
270.081
270.089
270.097
270.106
270.119
270
270
270.019
270.021
269.831
269.423
269.7
272.175
277.052
282.59
286.809
288.899
289.1
287.26
282.653
276.468
271.721
270.04
270.072
270.06
270.066
270.093
270.122
270.001
270.002
270.014
270.03
269.918
269.543
269.37
270.725
274.683
280.723
286.94
291.2
292.54
291.185
286.834
279.777
273.197
270.178
269.991
270.073
270.046
270.045
270.079
270
270.001
270.006
270.03
269.988
269.703
269.298
269.762
272.516
278.045
285.1
291.176
294.317
294.381
291.315
284.567
276.365
271.09
269.765
269.955
270.073
270.075
270.057
270
270
270.001
270.022
270.026
269.856
269.431
269.328
270.886
275.208
281.907
288.879
293.774
295.83
294.975
290.195
281.979
274.353
270.458
269.587
269.85
269.983
270.058
270
270.001
270
270.012
270.034
269.964
269.651
269.31
269.912
272.715
278.087
284.768
290.672
294.603
296.282
294.683
288.861
280.847
274.333
270.916
269.777
269.619
269.768
270.001
270.001
270
270.004
270.024
270.016
269.849
269.516
269.534
270.925
274.455
279.765
285.491
290.435
294.113
295.726
293.824
288.35
281.596
276.11
272.769
271.092
270.408
270.001
270.002
270.001
270.001
270.012
270.026
269.971
269.763
269.56
269.965
271.726
275.09
279.517
284.194
288.626
292.282
293.948
292.509
288.396
283.34
278.948
275.803
273.888
270.001
270.002
270.001
270
270.003
270.017
270.019
269.938
269.753
269.684
270.207
271.748
274.345
277.696
281.502
285.482
288.919
290.673
290.072
287.52
284.106
280.753
278.016
270.001
270.002
270.002
270.001
270
270.006
270.021
270.016
269.928
269.765
269.702
270.047
271.043
272.743
275.097
278.036
281.275
284.113
285.713
285.67
284.218
281.927
279.397
270.001
270.002
270.002
270.002
270
270
270.01
270.027
270.015
269.918
269.74
269.594
269.669
270.121
271.046
272.503
274.461
276.65
278.544
279.616
279.628
278.694
277.126
270.001
270.002
270.002
270.002
270.001
269.999
270.002
270.014
270.028
270.006
269.905
269.72
269.518
269.405
269.482
269.835
270.524
271.518
272.625
273.539
273.99
273.885
273.282
270.001
270.002
270.002
270.002
270.001
270
269.999
270.003
270.014
270.023
270.003
269.922
269.777
269.596
269.425
269.315
269.322
269.484
269.787
270.143
270.428
270.556
270.495
270.001
270.001
270.002
270.001
270.001
270.001
269.999
269.999
270.002
270.011
270.021
270.016
269.979
269.9
269.784
269.644
269.5
269.383
269.325
269.335
269.4
269.493
269.589
270.002
270.001
270.001
270.001
270.001
270
270
269.999
269.998
270.001
270.01
270.023
270.033
270.031
270.006
269.956
269.88
269.788
269.701
269.64
269.624
269.655
269.725
270.001
270.001
270.001
270.001
270.001
270
270.001
270
269.999
269.998
270
270.007
270.019
270.032
270.043
270.045
270.037
270.016
269.987
269.961
269.946
269.948
269.964
270.001
270.001
270.001
270
270
270
270
270
270
269.999
269.998
269.999
270.002
270.008
270.016
270.025
270.034
270.041
270.043
270.043
270.04
270.035
270.029
270.001
270.001
270.001
270
270
270
270
270
270
269.999
269.999
269.998
269.998
269.998
269.999
270.002
270.006
270.012
270.017
270.02
270.02
270.017
270.011
270.001
270.001
270
270
270
270
270
270
269.999
269.999
269.999
269.999
269.999
269.998
269.998
269.997
269.998
269.998
269.999
270
270
269.999
269.998
270.001
270.001
270.001
270
270
270
270
269.999
269.999
269.999
269.999
269.999
270
270
270
269.999
269.999
269.998
269.998
269.997
269.997
269.997
269.998
270
270.001
270.001
270.001
270.001
270
269.999
269.999
269.998
269.998
269.999
269.999
270
270
270
270
270
270
269.999
269.999
269.999
269.999
269.999
270
270.001
270.002
270.001
270.001
270
269.999
269.999
269.998
269.999
269.999
269.999
270
270
270
270
270
270
270
269.999
269.999
269.999
269.999
270
270.002
270.002
270.001
270
270
269.999
269.999
269.999
269.999
269.999
270
270
270
270
270
270
269.999
269.999
269.999
269.999
269.999
269.999
270.001
270.002
270.002
270.001
270
270
269.999
269.999
270
270
270
270
270
270
270
270
269.999
269.999
269.999
269.999
269.999
269.999
269.999
270.001
270.002
270.001
270.001
270
270
270
270
270
270
270
270
270.001
270
270
270
269.999
269.999
269.999
269.999
269.999
269.999
269.999
270.001
270.001
270.001
270.001
270
270
270
270
270
270
270
270.001
270.001
270
270
269.999
269.999
269.999
269.999
269.999
269.999
269.999
269.999
270.001
270.001
270.001
270.001
270
270
270
270
270
270
270
270.001
270.001
270
270
269.999
269.999
269.999
269.999
269.999
269.999
269.999
270
270.001
270.001
270.001
270.001
270.001
270
270
270
270
270
270.001
270.001
270.001
270
270
269.999
269.999
269.999
269.999
269.999
269.999
269.999
270
270.001
270.001
270.001
270.001
270.001
270
270
270
270
270
270
270.001
270
270
270
270
269.999
270
270
270
269.999
270
270
269.977
269.981
269.983
269.984
269.953
269.964
269.977
269.989
269.993
270.005
270.025
270.048
270.036
270.033
270.031
270.025
270.022
270.015
270.009
270.005
270.022
270.016
270.015
270.02
270.042
270.037
270.031
270.021
270.007
270.008
270.007
270.006
269.99
269.987
269.99
269.996
269.985
269.984
269.985
269.99
269.999
270.004
270.013
270.027
270.063
270.087
270.13
270.149
270.138
270.131
270.128
270.128
270.13
270.132
270.135
270.139
270.162
270.182
270.199
270.213
270.133
270.177
270.215
270.245
270.072
270.118
270.148
270.17
270.093
270.102
270.098
270.09
269.863
269.892
269.907
269.92
270.135
270.081
270.075
270.089
272.872
272.427
272.081
271.783
276.284
275.331
274.48
273.695
277.566
276.436
275.373
274.376
275.848
274.988
274.149
273.354
272.711
272.294
271.876
271.479
270.396
270.311
270.224
270.145
269.658
269.702
269.745
269.788
269.785
269.825
269.864
269.899
269.979
269.988
269.995
270
270.023
270.019
270.015
270.011
270.007
270.005
270.003
270.001
269.998
269.998
269.998
269.998
269.998
269.998
269.999
269.999
269.999
269.999
269.999
269.999
269.999
269.999
270
270
269.999
269.999
269.999
269.999
269.999
269.999
269.999
269.999
269.999
269.999
269.999
269.999
269.999
269.999
269.999
270
270
270
270
270.001
270
270
270
270.001
270
270
270
270.001
269.986
269.99
269.997
269.999
270.004
269.984
270.021
270.092
270.037
270.042
270.008
270.005
269.998
269.997
270.003
270.009
270.013
270.02
270.028
269.998
270.023
270.001
269.983
269.983
269.978
270.03
270.127
270.075
270.076
270.007
270.002
269.996
270
270.008
270.014
270.018
270.024
270.025
270.062
270.051
270.008
269.991
269.969
269.969
270.05
270.168
270.128
270.067
270.009
270.002
269.999
270.001
270.01
270.018
270.024
270.024
270.022
270.028
270.051
270.029
269.983
269.957
269.961
270.067
270.261
270.271
270.079
270.015
270.005
270.001
269.997
270.001
270.009
270.018
270.022
270.019
270.016
270.05
270.041
269.982
269.956
269.961
270.059
270.386
270.457
270.243
270.03
270.009
270.006
269.994
269.991
269.998
270.003
270.008
270.015
270.033
270.051
270.049
270.016
269.963
269.97
270.02
270.205
270.319
270.353
270.069
270.015
270.016
269.999
269.991
269.995
270
270.004
270.01
270.013
270.013
270.036
270.053
269.987
269.977
269.996
270.08
270.225
270.423
270.113
270.016
270.028
270.016
269.999
269.998
270
270
270.004
270.004
270.003
270.01
270.034
270.029
269.981
269.992
270.019
270.119
270.276
270.147
270.023
270.035
270.06
270.026
270.012
270.005
269.998
269.998
269.998
270.001
270.004
270.013
270.036
269.998
269.99
269.987
269.997
270.117
270.053
270.024
270.038
270.083
270.062
270.039
270.018
270.003
269.993
269.997
270.006
270.011
270.009
270.002
269.996
269.99
269.982
269.973
270.011
270.013
270.022
270.037
270.072
270.073
270.056
270.036
270.013
269.998
270.038
270.044
270.037
270.024
270.011
270.005
270.004
270.001
269.997
270
270.015
270.023
270.036
270.088
270.084
270.069
270.054
270.038
270.018
270.141
270.103
270.064
270.035
270.023
270.019
270.017
270.018
270.018
270.01
270.019
270.028
270.041
270.097
270.086
270.068
270.053
270.068
270.021
270.131
270.136
270.129
270.099
270.058
270.026
270.027
270.028
270.028
270.035
270.07
270.059
270.058
270.096
270.073
270.057
270.016
270.086
270.018
270.146
270.153
270.149
270.147
270.14
270.118
270.096
270.088
270.082
270.089
270.107
270.106
270.101
270.081
270.048
270.042
270
270.125
270.016
270.23
270.239
270.198
270.143
270.137
270.16
270.162
270.15
270.143
270.139
270.133
270.113
270.081
270.044
270.024
270.032
270.003
270.165
270.009
270.286
270.343
270.349
270.25
270.111
270.065
270.091
270.112
270.109
270.09
270.063
270.036
270.018
270.011
270.017
270.034
270.009
270.229
270.003
270.184
270.233
270.353
270.405
270.261
270.057
269.969
269.962
269.965
269.964
269.966
269.977
269.995
270.013
270.031
270.044
270.006
270.353
270.003
270.022
269.913
270.102
270.339
270.327
270.112
269.929
269.861
269.863
269.895
269.939
269.981
270.012
270.031
270.05
270.056
269.998
270.496
270.002
269.877
269.822
269.927
270.128
270.169
270.013
269.848
269.793
269.825
269.894
269.96
270.002
270.026
270.046
270.072
270.066
269.994
270.637
269.999
270.11
270.066
270.029
270.028
269.953
269.814
269.725
269.737
269.816
269.908
269.974
270.008
270.036
270.069
270.101
270.075
270.002
270.785
269.996
271.314
270.693
270.231
269.954
269.777
269.677
269.677
269.758
269.863
269.944
269.99
270.02
270.06
270.106
270.137
270.078
270.034
270.95
269.989
272.541
271.263
270.404
269.919
269.704
269.668
269.739
269.845
269.931
269.979
270.011
270.051
270.104
270.153
270.171
270.072
270.114
271.14
269.98
272.941
271.417
270.438
269.932
269.762
269.781
269.868
269.943
269.981
270.009
270.05
270.103
270.156
270.195
270.193
270.055
270.268
271.35
269.967
272.208
271.013
270.285
269.954
269.882
269.923
269.973
269.993
270.008
270.052
270.11
270.156
270.192
270.217
270.196
270.033
270.505
271.542
269.954
270.919
270.366
270.073
269.978
269.982
270.004
270.006
270.003
270.046
270.117
270.158
270.17
270.188
270.212
270.175
270.022
270.797
271.683
269.95
270.05
269.986
269.983
270.003
270.017
270.012
269.996
270.025
270.113
270.167
270.15
270.127
270.149
270.186
270.129
270.076
271.054
271.736
269.977
269.857
269.938
269.989
270.01
270.01
269.994
269.995
270.079
270.176
270.16
270.088
270.064
270.109
270.153
270.065
270.286
271.206
271.499
270.085
269.945
269.985
270.001
270.003
269.998
269.985
270.016
270.136
270.196
270.108
270.027
270.035
270.089
270.093
270.063
270.553
271.243
270.776
270.392
270.004
270.003
270.001
270
269.993
269.984
270.037
270.16
270.183
270.066
270.007
270.039
270.062
270.021
270.104
270.616
271.208
270.501
270.953
270.006
270.001
270.001
270
269.991
269.987
270.039
270.144
270.166
270.06
270.007
270.03
270.02
270.023
270.185
270.484
271.22
270.526
271.04
269.999
270
270.002
270
269.991
269.988
270.019
270.101
270.148
270.078
270.005
270.008
270.033
270.113
270.273
270.392
271.166
270.773
271.107
269.999
270
270.002
270.001
269.995
269.989
269.997
270.043
270.104
270.102
270.031
270.011
270.065
270.167
270.248
270.384
271.103
271.151
271.243
269.999
270
270.001
270.001
269.999
269.994
269.987
269.987
270.031
270.108
270.115
270.075
270.099
270.197
270.284
270.497
271.142
271.647
271.372
270
270
270
270.001
270.002
270.002
269.986
269.952
269.987
270.127
270.237
270.256
270.267
270.315
270.427
270.794
271.354
272.005
271.38
269.999
270
270
270
270.003
270.005
269.977
269.951
270.063
270.285
270.439
270.487
270.49
270.516
270.722
271.254
271.664
272.22
271.332
269.999
270
270
270
270.006
269.996
269.958
270.022
270.296
270.57
270.668
270.663
270.664
270.775
271.164
271.731
271.894
272.24
271.333
270
270
270
270.002
270.004
269.974
269.98
270.218
270.589
270.76
270.717
270.682
270.83
271.158
271.62
272.036
271.974
272.132
271.425
270
270.001
270
270.005
269.993
269.963
270.117
270.511
270.784
270.745
270.607
270.667
271.095
271.575
271.888
272.144
271.978
272.064
271.572
270.001
270
270
270.006
269.972
270.008
270.37
270.769
270.82
270.649
270.535
270.752
271.381
271.821
271.955
272.178
271.939
272.104
271.695
270.001
270
270.001
270.002
269.957
270.119
270.634
270.89
270.769
270.594
270.545
270.865
271.541
271.879
271.956
272.203
271.868
272.176
271.635
270.001
270
270.001
269.996
269.959
270.24
270.796
270.901
270.723
270.58
270.564
270.921
271.593
271.881
271.96
272.213
271.822
272.22
271.5
270
270
270
269.993
269.966
270.302
270.848
270.888
270.707
270.576
270.569
270.94
271.614
271.885
271.964
272.216
271.814
272.227
271.456
)
;

boundaryField
{
    leftWall
    {
        type            zeroGradient;
    }
    rightWall
    {
        type            zeroGradient;
    }
    lowerWall
    {
        type            zeroGradient;
    }
    atmosphere
    {
        type            zeroGradient;
    }
    defaultFaces
    {
        type            empty;
    }
}


// ************************************************************************* //
