/*--------------------------------*- C++ -*----------------------------------*\
| =========                 |                                                 |
| \\      /  F ield         | OpenFOAM: The Open Source CFD Toolbox           |
|  \\    /   O peration     | Version:  2.3.0                                 |
|   \\  /    A nd           | Web:      www.OpenFOAM.org                      |
|    \\/     M anipulation  |                                                 |
\*---------------------------------------------------------------------------*/
FoamFile
{
    version     2.0;
    format      ascii;
    class       volScalarField;
    location    "0.35";
    object      T;
}
// * * * * * * * * * * * * * * * * * * * * * * * * * * * * * * * * * * * * * //

dimensions      [0 0 0 1 0 0 0];

internalField   nonuniform List<scalar> 
2268
(
270
270
270
270
270
270
270
270
270
270
270
270
270
270
270
270
270
270
270
270
270
270
270
270
270
270
270
270
270
270
270
270
270
270
270
270
270
270
270
270
270
270
270
270
270
270
270
270
270
270
270
270
270
270
270
270
270
270
270
270
270
270
270
270
270
270
270
270
270
270
270
270
270
270
270
270
270
270
270
270
270
270
270
270
270
270
270
270
270
270
270
270
270
270
270
270
270
270
270
270
270
270
270
270
270
270
270
270
270
270
270
270
270
270
270
270
270
270
270
270
270
270
270
270
270
270
270
270
270
270
270
270
270
270
270
270
270
270
270
270
270
270
270
270
270
270
270
270
270
270
270
270
270
270
270
270
270
270
270
270
270
270
270
270
270
270
270
270
270
270
270
270.001
270.002
270.003
270.003
270.003
270.002
270.001
270.001
270
270
270
270
270
269.999
269.999
269.998
269.998
269.998
269.998
269.998
269.999
270
270
270.001
270.001
270.001
270.002
270.001
270
269.999
270
269.999
269.999
269.998
269.997
269.997
269.998
269.998
269.998
269.999
270
270
270.001
270.001
270.002
270.002
270
270
269.999
270
270
270
269.999
269.997
269.997
269.998
269.998
269.998
269.999
270
270
270.001
270.001
270.001
270.001
270.001
270
270
270
270
270
269.999
269.998
269.997
269.998
269.998
269.999
270
270
270
270.001
270.001
270.001
270.001
270.001
270
270
270.001
270
269.999
269.999
270
269.998
269.998
269.999
270
270
270
270
270.001
270.001
270.001
270.001
270.001
270.001
270.001
270.001
270
269.999
269.999
270.001
269.998
269.998
270
270
270
270
270
270.001
270.001
270.001
270.001
270.001
270.001
270
270
269.999
269.999
269.999
270.001
269.999
269.999
270
270
270.001
270.001
270
269.997
269.995
269.998
270.001
270.001
270.001
270
270
269.999
269.999
269.999
270.001
270.002
269.999
270
270.001
270.001
270.002
270.001
269.992
269.979
269.98
269.994
270
270
270
270
270
270
270
270
270
270
270
270
270
270
270
270.001
270.001
270.001
270.001
270.002
270.003
270.003
270.003
270.003
270.002
270.001
270
269.999
270
270
270
270
270
270
270
270.002
270.003
270
269.991
269.977
269.963
269.953
269.952
269.96
269.971
269.984
269.994
270.001
270.005
270.006
270.004
270
270
270
270
270
269.999
270.001
270.007
270.007
269.988
269.95
269.906
269.869
269.844
269.836
269.844
269.863
269.882
269.905
269.931
269.956
269.977
269.992
270
270
270
270
270
270
270.001
269.999
269.991
269.994
270.033
270.112
270.207
270.256
270.266
270.231
270.16
270.08
270.011
269.961
269.932
269.925
269.932
270
270
270
270
270.001
270.007
269.985
269.927
269.968
270.312
270.998
271.915
273.282
273.672
273.569
273.183
272.129
271.189
270.721
270.451
270.27
270.154
270.083
270.001
270.001
270.001
270
270.007
270.015
269.92
269.827
270.225
271.278
272.367
272.838
272.702
272.315
271.84
271.465
270.976
271.095
271.157
271.002
270.831
270.465
270.287
270.001
270
270
270.001
270.014
269.965
269.749
270.101
271.797
273.838
274.442
273.396
271.932
270.896
270.281
270.027
269.939
269.889
269.912
270.244
270.708
270.823
270.672
270
270
270.001
270.01
270.016
269.821
269.579
270.913
274.274
276.705
275.662
272.585
270.245
269.403
269.53
269.808
269.937
269.965
269.923
269.886
270.003
270.278
270.629
270
270
270.002
270.022
269.997
269.631
269.509
271.904
276.544
278.923
276.513
272.264
269.664
269.098
269.543
269.856
269.971
270.017
270.046
270.028
269.925
270.075
270.415
270
270
270.004
270.032
269.972
269.491
269.472
272.395
277.721
280.722
278.771
274.476
271.205
269.823
269.635
269.716
269.817
269.888
270.025
270.215
270.322
270.429
270.653
270
269.999
270.004
270.036
269.966
269.464
269.358
271.999
277.491
282.072
282.416
279.13
275.018
272.076
270.631
270.013
269.753
269.684
269.847
270.021
270.132
270.228
270.302
270
269.999
270.003
270.035
269.987
269.546
269.201
270.986
276.071
282.239
285.709
284.856
281.145
277.072
274.101
272.25
271.04
270.27
269.92
269.791
269.839
269.891
269.927
270
269.999
270.001
270.028
270.019
269.69
269.147
269.939
273.978
280.741
286.97
289.559
288.047
284.274
280.348
277.259
274.96
273.119
271.619
270.567
270.031
269.86
269.866
270
270
270
270.019
270.04
269.843
269.275
269.271
271.852
277.927
285.578
291.367
293.171
291.443
288.098
284.736
281.872
279.331
276.909
274.677
272.883
271.647
270.917
270
270
269.999
270.01
270.041
269.961
269.524
269.092
270.251
274.674
282.006
289.58
294.53
295.9
294.721
292.561
290.302
287.981
285.339
282.328
279.243
276.46
274.261
270
270
269.999
270.003
270.028
270.022
269.775
269.278
269.44
271.914
277.49
284.874
291.53
295.677
297.273
297.349
296.798
295.774
293.922
290.959
287.053
282.733
278.724
270
270
269.999
270
270.013
270.033
269.943
269.599
269.324
270.229
273.478
279.01
285.323
290.668
294.296
296.54
297.996
298.76
298.348
296.189
292.211
286.971
281.616
270
270
270
269.999
270.003
270.02
270.013
269.864
269.57
269.618
270.898
273.953
278.349
283.001
287.064
290.39
293.186
295.381
296.371
295.365
292.052
286.927
281.368
270
270
270
270
269.999
270.006
270.022
269.998
269.85
269.652
269.808
270.844
272.942
275.771
278.836
281.875
284.839
287.527
289.305
289.324
287.136
283.11
278.557
270
270.001
270.001
270
269.999
270
270.01
270.028
270.003
269.866
269.668
269.655
270.114
271.151
272.676
274.559
276.709
278.914
280.657
281.223
280.174
277.728
274.86
270
270.001
270.001
270.001
270
269.999
270.001
270.015
270.034
270.003
269.858
269.616
269.415
269.43
269.764
270.442
271.443
272.652
273.771
274.354
274.096
273.085
271.84
270.001
270.001
270.001
270.001
270.001
270
269.999
270.001
270.015
270.032
270.007
269.892
269.688
269.463
269.307
269.29
269.447
269.77
270.17
270.482
270.571
270.437
270.225
270.001
270.001
270.001
270.001
270.001
270.001
270
269.998
270
270.013
270.035
270.042
270.001
269.898
269.748
269.583
269.434
269.336
269.311
269.368
269.489
269.644
269.792
270.001
270.001
270.001
270.001
270.001
270.001
270.001
270
269.998
269.998
270.011
270.038
270.068
270.08
270.056
269.989
269.884
269.758
269.648
269.602
269.644
269.754
269.873
270.001
270.001
270.001
270.001
270.001
270.001
270.001
270.001
270.001
269.998
269.996
270.001
270.017
270.042
270.067
270.081
270.074
270.044
270
269.963
269.951
269.965
269.985
270.001
270.001
270.001
270.001
270.001
270.001
270.001
270.001
270.001
270.001
269.998
269.993
269.99
269.993
270.004
270.021
270.042
270.059
270.066
270.061
270.046
270.027
270.012
270.001
270
270
270.001
270.001
270.001
270.001
270.001
270.001
270.001
270.001
270
269.997
269.993
269.989
269.989
269.995
270.005
270.017
270.023
270.021
270.013
270.004
270
270
270
270
270
270.001
270.001
270
270
270
270.001
270.002
270.003
270.002
270
269.996
269.992
269.991
269.992
269.995
269.998
269.999
269.999
270
270
270
270
270
270
270
270
270
270
270
270.001
270.002
270.003
270.003
270.002
270.001
269.998
269.996
269.996
269.997
269.998
269.999
270
270
270
270
270
270
270
270
269.999
269.999
270
270
270
270
270.001
270.001
270.002
270.002
270.001
270
270
269.999
269.999
270
270
270
270
270
270
270
269.999
269.999
269.999
270
270
270.001
270
270
270
270
270
270.001
270
270
270
270
270
270
270
270
270
270
270
269.999
269.999
269.999
270
270
270.001
270.001
270
270
270
270
270
270
270
270
270
270
270
270
270
270
270
270
269.999
269.999
270
270
270
270.001
270.001
270
270
270
270
270
270
270
270
270
270
270
270
270
270
270
270
270
270
270
270
270
270.001
270
270
270
270
270
270
270
270
270
270
270
270
270
270
270
270
270
270
270
270
270
270
270
270
270
270
270
270
270
270
270
270
270
270
270
270
270
270
270
270
270
270
270
270
270
270
270
270
270
270
270
270
270
270
270
270
270
270
270
270
270
270
270
270
270
270
270
270
270
270
270
270
269.999
270
270
270
270
270
270
270
270
270
270
270
270
270
270
270
270
270
270
270
270
270
270
270
270
270
270
270
270
270
270
270
270
270
270
270
270
270
270
270
270
270
270
270
270
270
270
270
270
270
270
270
270
270
270
270
270
270
270
270
270
270
270
270
270
270
270
270
270
270
270
270
270
270
270
270
270
270
270
270
270
270
270
270
270
270
270
270
270
270
270
270
270
270
270
270
270
270
270
270
270
270
270
270
270
270
270
270
270
270
270
270
270
270
270
270
270
270
270
270
270
270
269.999
269.998
269.998
269.998
270.003
270.002
270.001
270
270
270.003
270.005
270.006
269.942
269.95
269.957
269.964
270.046
270.03
270.019
270.009
270.202
270.169
270.143
270.122
270.552
270.503
270.473
270.389
270.776
270.793
270.781
270.751
270.68
270.828
270.943
271.035
270.864
271.011
271.15
271.273
270.358
270.388
270.397
270.396
269.981
270
269.985
269.97
269.904
269.929
269.947
269.963
270.583
270.456
270.368
270.302
272.971
272.322
271.791
271.345
276.111
274.676
273.458
272.413
277.94
275.859
274.088
272.584
277.459
275.237
273.375
271.837
275.319
273.498
272.011
270.836
272.809
271.681
270.795
270.138
270.945
270.471
270.12
269.889
270.064
269.986
269.938
269.92
269.886
269.935
269.972
269.999
269.95
269.986
270.008
270.018
269.999
270.004
270.006
270.005
270.004
270
269.998
269.997
270
269.998
269.998
269.998
269.999
269.999
269.999
269.999
269.999
269.999
270
270
270
270
270
270
270
270
270
270
270
270
270
270.001
270
270.001
270.001
270.001
270
270.001
270.001
270.001
270
270
270
270.001
270.001
270
270
270.001
270
270
270
270.001
270
270
270.001
270.001
270
270
270.001
270.001
270
270
270.001
270.001
270
270
270.001
270
270
270
270.001
270
269.996
269.998
270.003
270.003
270
270
270.001
270.001
270.006
270.025
270.064
270.067
270.013
269.984
269.993
270
270
270
270
269.999
269.998
270.005
270.004
270.001
270.001
270.002
269.999
270.009
270.093
270.302
270.464
270.366
270.111
269.993
269.991
270
270
270
270.007
270.006
270.008
270.007
270.005
270.004
270.003
269.996
269.988
270.085
270.37
270.725
270.997
270.735
270.216
269.99
269.988
270
270
269.974
269.984
269.991
269.996
269.998
270
270.001
270.002
270
270.021
270.173
270.29
270.755
271.042
270.705
270.129
269.971
269.992
270
269.997
269.988
269.984
269.984
269.985
269.988
269.991
269.994
269.996
269.998
270.004
270.025
270.025
270.239
270.397
270.306
270.033
269.983
269.998
270.098
270.07
270.047
270.03
270.017
270.007
270
269.995
269.994
269.994
269.992
269.994
270
270.017
270.019
270.068
270.044
269.997
269.997
270.242
270.161
270.128
270.112
270.093
270.068
270.044
270.028
270.019
270.009
270
269.995
269.995
269.997
270
270.003
270.016
270.005
269.998
270.666
270.529
270.404
270.298
270.455
270.533
270.381
270.183
270.086
270.035
270.02
270.013
270.002
269.995
269.994
269.995
269.999
270.004
270
271.158
271.214
271.142
270.939
270.704
270.359
270.143
270.013
270.026
270.032
270.028
270.029
270.015
270.001
269.995
269.994
269.995
269.997
270.001
271.368
271.133
270.663
270.323
270.099
269.979
269.926
269.896
269.906
269.956
270
270.025
270.03
270.015
270.001
269.995
269.994
269.993
269.999
270.328
270.194
270.073
270.001
269.952
269.959
269.963
269.94
269.914
269.923
269.967
270.01
270.027
270.041
270.014
269.997
269.992
269.991
269.995
269.93
269.926
269.965
269.997
270.017
270.03
270.034
270.024
269.998
269.973
269.979
270.014
270.04
270.056
270.035
270.003
269.99
269.988
269.99
269.987
270.014
270.031
270.039
270.039
270.035
270.031
270.03
270.028
270.018
270.013
270.029
270.063
270.095
270.076
270.014
269.99
269.985
269.987
270.22
270.13
270.063
270.02
269.997
269.989
269.992
270
270.008
270.013
270.016
270.026
270.054
270.103
270.122
270.03
269.99
269.981
269.984
270.787
270.277
270.007
269.903
269.892
269.923
269.961
269.989
270.004
270.009
270.007
270.007
270.025
270.082
270.157
270.043
269.991
269.977
269.981
271.175
270.178
269.773
269.71
269.789
269.892
269.968
270.006
270.018
270.018
270.01
269.998
269.999
270.052
270.151
270.055
269.992
269.973
269.977
270.942
269.811
269.512
269.602
269.786
269.931
270.006
270.031
270.033
270.027
270.017
270.002
269.992
270.027
270.137
270.066
269.994
269.971
269.974
270.334
269.504
269.453
269.67
269.879
269.996
270.037
270.043
270.038
270.031
270.022
270.01
269.998
270.016
270.102
270.059
269.998
269.974
269.972
269.848
269.474
269.604
269.826
269.972
270.03
270.041
270.039
270.035
270.032
270.026
270.017
270.007
270.015
270.059
270.038
270.001
269.982
269.973
269.7
269.652
269.81
269.949
270.014
270.03
270.032
270.033
270.034
270.033
270.029
270.021
270.013
270.014
270.029
270.022
270.001
269.989
269.977
269.797
269.86
269.951
270.001
270.016
270.021
270.027
270.033
270.036
270.035
270.03
270.023
270.016
270.014
270.017
270.013
270.002
269.994
269.983
269.943
269.982
270.002
270.006
270.008
270.017
270.031
270.042
270.044
270.04
270.032
270.023
270.015
270.013
270.013
270.005
270
269.995
269.984
270.014
270.012
270.004
270
270.006
270.023
270.044
270.057
270.057
270.05
270.041
270.028
270.018
270.017
270.007
270.001
269.998
269.989
269.982
270.015
270.005
269.998
269.997
270.011
270.037
270.064
270.08
270.076
270.067
270.061
270.052
270.044
270.03
270.002
269.998
269.992
269.982
269.98
270.002
269.998
269.996
269.999
270.019
270.058
270.095
270.112
270.107
270.097
270.095
270.093
270.074
270.013
269.998
269.997
269.99
269.979
269.979
269.998
269.998
269.996
270
270.031
270.091
270.142
270.154
270.15
270.123
270.107
270.099
270.033
270.007
269.999
269.998
269.989
269.978
269.98
269.999
269.998
269.994
270.002
270.052
270.144
270.199
270.193
270.167
270.118
270.059
270.022
270.011
270.005
270
269.997
269.989
269.978
269.985
270
269.998
269.993
270.008
270.089
270.213
270.254
270.185
270.129
270.046
270.009
270.004
270.006
270.006
270.011
270.05
269.998
269.979
269.997
270
269.997
269.991
270.018
270.142
270.284
270.303
270.094
270.057
270.012
270.001
270.003
270.006
270.005
270.019
270.223
270.025
269.976
270.009
270
269.997
269.99
270.032
270.201
270.352
270.353
270.087
270.001
269.99
269.997
270.003
270.004
270.003
270.108
270.368
270.059
269.963
270.011
270.001
269.996
269.99
270.046
270.262
270.436
270.403
270.324
270.029
269.961
269.973
269.992
270.015
270.065
270.276
270.51
270.08
269.941
270.001
270.001
269.996
269.989
270.056
270.319
270.539
270.431
270.196
270.027
269.977
269.99
270.079
270.157
270.243
270.493
270.716
270.123
269.919
269.985
270.001
269.997
269.988
270.058
270.357
270.629
270.438
270.092
270.011
269.985
269.989
270.213
270.342
270.46
270.722
270.892
270.224
269.905
269.971
270.001
269.998
269.988
270.048
270.365
270.684
270.49
270.135
270.011
269.985
269.983
270.305
270.481
270.635
270.89
270.971
270.269
269.899
269.967
270
269.999
269.989
270.03
270.339
270.7
270.52
270.332
270.06
269.988
269.98
270.282
270.536
270.707
270.923
270.914
270.276
269.898
269.969
270
270
269.992
270.01
270.274
270.692
270.555
270.361
270.099
269.996
269.979
270.102
270.496
270.664
270.821
270.765
270.259
269.903
269.974
270
270
269.996
269.992
270.173
270.667
270.613
270.276
270.111
270.006
269.977
270.032
270.411
270.554
270.646
270.583
270.223
269.915
269.978
270
270
270
269.985
270.064
270.61
270.775
270.259
270.129
270.017
269.981
269.996
270.289
270.433
270.467
270.41
270.178
269.933
269.983
270
270
270.001
269.986
269.991
270.531
270.952
270.393
270.207
270.033
269.985
269.982
270.129
270.331
270.322
270.268
270.129
269.952
269.988
270
270
270.001
269.99
269.972
270.492
271.014
270.415
270.196
270.036
269.99
269.979
270.067
270.251
270.22
270.164
270.084
269.969
269.992
270
270
270.001
269.99
269.979
270.504
271.027
270.414
270.241
270.021
269.987
269.984
270.018
270.183
270.158
270.097
270.05
269.981
269.995
270
270
270.001
269.99
269.985
270.522
271.038
270.512
270.317
270.117
270.003
269.988
270.006
270.113
270.1
270.047
270.022
269.991
269.998
)
;

boundaryField
{
    leftWall
    {
        type            zeroGradient;
    }
    rightWall
    {
        type            zeroGradient;
    }
    lowerWall
    {
        type            zeroGradient;
    }
    atmosphere
    {
        type            zeroGradient;
    }
    defaultFaces
    {
        type            empty;
    }
}


// ************************************************************************* //
