/*--------------------------------*- C++ -*----------------------------------*\
| =========                 |                                                 |
| \\      /  F ield         | OpenFOAM: The Open Source CFD Toolbox           |
|  \\    /   O peration     | Version:  2.3.0                                 |
|   \\  /    A nd           | Web:      www.OpenFOAM.org                      |
|    \\/     M anipulation  |                                                 |
\*---------------------------------------------------------------------------*/
FoamFile
{
    version     2.0;
    format      ascii;
    class       volScalarField;
    location    "0.5";
    object      p;
}
// * * * * * * * * * * * * * * * * * * * * * * * * * * * * * * * * * * * * * //

dimensions      [0 2 -2 0 0 0 0];

internalField   nonuniform List<scalar> 
4000
(
426.161
412.925
408.879
403.622
398.969
394.222
389.671
385.186
380.795
376.461
372.178
367.93
363.711
359.511
355.326
351.15
346.981
342.817
338.656
334.497
330.339
326.181
322.025
317.868
313.712
309.556
305.4
301.244
297.089
292.933
288.777
284.621
280.465
276.31
272.154
267.998
263.842
259.686
255.531
251.375
247.219
243.063
238.907
234.752
230.596
226.44
222.284
218.128
213.973
209.817
205.661
201.505
197.349
193.194
189.038
184.882
180.726
176.57
172.414
168.259
164.103
159.947
155.791
151.635
147.479
143.323
139.168
135.012
130.856
126.7
122.544
118.389
114.233
110.077
105.921
101.765
97.6096
93.4538
89.2979
85.1421
80.9862
76.8304
72.6746
68.5187
64.3629
60.2071
56.0513
51.8956
47.7401
43.5848
39.4299
35.2756
31.1224
26.9709
22.8218
18.6758
14.5343
10.3947
6.27186
2.14868
423.713
412.835
408.729
403.434
398.779
394.031
389.479
384.993
380.602
376.267
371.984
367.736
363.516
359.316
355.131
350.955
346.786
342.622
338.461
334.301
330.143
325.986
321.829
317.673
313.517
309.361
305.205
301.049
296.893
292.737
288.582
284.426
280.27
276.114
271.959
267.803
263.647
259.491
255.335
251.18
247.024
242.868
238.712
234.556
230.4
226.245
222.089
217.933
213.777
209.621
205.466
201.31
197.154
192.998
188.843
184.687
180.531
176.375
172.219
168.063
163.907
159.752
155.596
151.44
147.284
143.128
138.972
134.817
130.661
126.505
122.349
118.193
114.038
109.882
105.726
101.57
97.4143
93.2585
89.1026
84.9468
80.7909
76.6351
72.4793
68.3234
64.1676
60.0118
55.856
51.7003
47.5448
43.3895
39.2346
35.0803
30.9271
26.7756
22.6264
18.4805
14.3391
10.2
6.07851
1.96707
422.431
412.832
408.682
403.355
398.7
393.947
389.396
384.908
380.517
376.181
371.898
367.65
363.43
359.23
355.044
350.868
346.699
342.535
338.374
334.214
330.056
325.899
321.743
317.586
313.43
309.274
305.118
300.962
296.806
292.65
288.495
284.339
280.183
276.027
271.872
267.716
263.56
259.404
255.248
251.093
246.937
242.781
238.625
234.469
230.314
226.158
222.002
217.846
213.69
209.535
205.379
201.223
197.067
192.911
188.756
184.6
180.444
176.288
172.132
167.976
163.821
159.665
155.509
151.353
147.197
143.041
138.885
134.73
130.574
126.418
122.262
118.106
113.951
109.795
105.639
101.483
97.3274
93.1715
89.0157
84.8599
80.704
76.5482
72.3923
68.2365
64.0807
59.9249
55.7691
51.6134
47.4579
43.3026
39.1476
34.9934
30.8402
26.6886
22.5395
18.3935
14.2522
10.1132
5.99239
1.88595
421.913
412.924
408.719
403.372
398.717
393.959
389.408
384.919
380.527
376.191
371.907
367.659
363.439
359.238
355.052
350.877
346.708
342.543
338.382
334.223
330.065
325.908
321.751
317.595
313.438
309.282
305.126
300.971
296.815
292.659
288.503
284.347
280.192
276.036
271.88
267.724
263.568
259.413
255.257
251.101
246.945
242.789
238.634
234.478
230.322
226.166
222.01
217.855
213.699
209.543
205.387
201.231
197.076
192.92
188.764
184.608
180.452
176.297
172.141
167.985
163.829
159.673
155.517
151.361
147.206
143.05
138.894
134.738
130.582
126.426
122.271
118.115
113.959
109.803
105.647
101.492
97.3358
93.1799
89.0241
84.8683
80.7124
76.5566
72.4007
68.2449
64.0891
59.9333
55.7775
51.6218
47.4663
43.311
39.156
35.0018
30.8486
26.6969
22.5478
18.4019
14.2607
10.122
6
1.89076
421.576
413.035
408.784
403.419
398.76
393.998
389.447
384.957
380.565
376.228
371.944
367.696
363.475
359.275
355.089
350.913
346.744
342.58
338.419
334.259
330.101
325.944
321.787
317.631
313.475
309.319
305.163
301.007
296.851
292.695
288.54
284.384
280.228
276.072
271.916
267.761
263.605
259.449
255.293
251.137
246.982
242.826
238.67
234.514
230.358
226.203
222.047
217.891
213.735
209.579
205.424
201.268
197.112
192.956
188.8
184.645
180.489
176.333
172.177
168.021
163.865
159.709
155.554
151.398
147.242
143.086
138.93
134.774
130.619
126.463
122.307
118.151
113.995
109.84
105.684
101.528
97.3722
93.2163
89.0605
84.9047
80.7488
76.593
72.4371
68.2813
64.1255
59.9697
55.8139
51.6582
47.5027
43.3474
39.1924
35.0382
30.8849
26.7333
22.5842
18.4383
14.2972
10.1583
6.03537
1.92179
421.272
413.131
408.851
403.469
398.806
394.039
389.488
384.997
380.604
376.268
371.983
367.735
363.514
359.314
355.128
350.952
346.783
342.618
338.457
334.298
330.14
325.982
321.826
317.669
313.513
309.357
305.201
301.045
296.889
292.734
288.578
284.422
280.266
276.111
271.955
267.799
263.643
259.487
255.332
251.176
247.02
242.864
238.708
234.553
230.397
226.241
222.085
217.929
213.774
209.618
205.462
201.306
197.15
192.995
188.839
184.683
180.527
176.371
172.215
168.06
163.904
159.748
155.592
151.436
147.28
143.124
138.969
134.813
130.657
126.501
122.345
118.19
114.034
109.878
105.722
101.566
97.4105
93.2547
89.0989
84.943
80.7872
76.6314
72.4755
68.3197
64.1638
60.008
55.8523
51.6966
47.541
43.3857
39.2308
35.0765
30.9233
26.7716
22.6224
18.4766
14.3355
10.1971
6.07308
1.95506
421.002
413.209
408.915
403.517
398.848
394.078
389.527
385.035
380.642
376.305
372.021
367.772
363.551
359.35
355.164
350.988
346.819
342.655
338.494
334.334
330.176
326.019
321.862
317.706
313.55
309.394
305.238
301.082
296.926
292.77
288.615
284.459
280.303
276.147
271.991
267.836
263.68
259.524
255.368
251.212
247.057
242.901
238.745
234.589
230.433
226.278
222.122
217.966
213.81
209.654
205.499
201.343
197.187
193.031
188.875
184.72
180.564
176.408
172.252
168.096
163.94
159.785
155.629
151.473
147.317
143.161
139.005
134.849
130.694
126.538
122.382
118.226
114.07
109.915
105.759
101.603
97.4472
93.2914
89.1355
84.9797
80.8239
76.668
72.5122
68.3563
64.2005
60.0447
55.8889
51.7332
47.5777
43.4224
39.2674
35.1132
30.9599
26.8082
22.6591
18.5132
14.3723
10.2344
6.10892
1.98647
420.768
413.273
408.975
403.564
398.889
394.114
389.564
385.071
380.678
376.341
372.056
367.807
363.586
359.385
355.199
351.023
346.854
342.69
338.528
334.369
330.211
326.054
321.897
317.741
313.584
309.428
305.273
301.117
296.961
292.805
288.649
284.493
280.338
276.182
272.026
267.87
263.715
259.559
255.403
251.247
247.091
242.936
238.78
234.624
230.468
226.312
222.156
218.001
213.845
209.689
205.533
201.377
197.222
193.066
188.91
184.754
180.598
176.443
172.287
168.131
163.975
159.819
155.663
151.507
147.352
143.196
139.04
134.884
130.728
126.573
122.417
118.261
114.105
109.949
105.794
101.638
97.4819
93.3261
89.1702
85.0144
80.8585
76.7027
72.5468
68.391
64.2352
60.0794
55.9236
51.7679
47.6124
43.457
39.3021
35.1478
30.9945
26.8429
22.6937
18.5479
14.407
10.2697
6.14269
2.01588
420.564
413.326
409.03
403.608
398.926
394.148
389.597
385.104
380.711
376.374
372.089
367.839
363.618
359.418
355.231
351.055
346.886
342.722
338.561
334.401
330.243
326.086
321.929
317.773
313.617
309.461
305.305
301.149
296.993
292.837
288.682
284.526
280.37
276.214
272.058
267.903
263.747
259.591
255.435
251.279
247.124
242.968
238.812
234.656
230.5
226.345
222.189
218.033
213.877
209.721
205.566
201.41
197.254
193.098
188.942
184.787
180.631
176.475
172.319
168.163
164.007
159.851
155.696
151.54
147.384
143.228
139.072
134.916
130.761
126.605
122.449
118.293
114.137
109.982
105.826
101.67
97.5142
93.3583
89.2025
85.0467
80.8908
76.735
72.5791
68.4233
64.2675
60.1117
55.9559
51.8002
47.6446
43.4893
39.3344
35.1801
31.0268
26.8752
22.7259
18.5802
14.4394
10.3028
6.17415
2.04312
420.385
413.368
409.081
403.649
398.96
394.179
389.628
385.135
380.742
376.404
372.119
367.869
363.648
359.447
355.261
351.085
346.916
342.752
338.59
334.431
330.273
326.116
321.959
317.803
313.646
309.49
305.334
301.179
297.023
292.867
288.711
284.555
280.4
276.244
272.088
267.932
263.776
259.621
255.465
251.309
247.153
242.997
238.842
234.686
230.53
226.374
222.218
218.063
213.907
209.751
205.595
201.439
197.284
193.128
188.972
184.816
180.66
176.505
172.349
168.193
164.037
159.881
155.725
151.569
147.414
143.258
139.102
134.946
130.79
126.635
122.479
118.323
114.167
110.011
105.855
101.7
97.5438
93.388
89.2322
85.0763
80.9205
76.7647
72.6088
68.453
64.2971
60.1413
55.9856
51.8299
47.6743
43.519
39.364
35.2097
31.0565
26.9048
22.7556
18.6099
14.4691
10.3333
6.20309
2.06806
420.23
413.403
409.127
403.687
398.991
394.207
389.656
385.163
380.769
376.431
372.146
367.896
363.675
359.474
355.288
351.112
346.943
342.779
338.617
334.458
330.3
326.143
321.986
317.83
313.673
309.517
305.361
301.206
297.05
292.894
288.738
284.582
280.427
276.271
272.115
267.959
263.803
259.648
255.492
251.336
247.18
243.024
238.869
234.713
230.557
226.401
222.245
218.09
213.934
209.778
205.622
201.466
197.311
193.155
188.999
184.843
180.687
176.532
172.376
168.22
164.064
159.908
155.752
151.596
147.441
143.285
139.129
134.973
130.817
126.661
122.506
118.35
114.194
110.038
105.882
101.727
97.5708
93.415
89.2592
85.1033
80.9475
76.7916
72.6358
68.4799
64.3241
60.1683
56.0125
51.8569
47.7013
43.546
39.391
35.2367
31.0834
26.9318
22.7825
18.637
14.4962
10.3611
6.22943
2.09066
420.095
413.43
409.169
403.721
399.019
394.232
389.681
385.187
380.794
376.456
372.171
367.921
363.7
359.499
355.313
351.136
346.967
342.803
338.641
334.482
330.324
326.167
322.01
317.854
313.698
309.542
305.386
301.23
297.074
292.918
288.762
284.607
280.451
276.295
272.139
267.984
263.828
259.672
255.516
251.36
247.205
243.049
238.893
234.737
230.581
226.425
222.27
218.114
213.958
209.802
205.647
201.491
197.335
193.179
189.023
184.868
180.712
176.556
172.4
168.244
164.088
159.932
155.777
151.621
147.465
143.309
139.153
134.997
130.842
126.686
122.53
118.374
114.218
110.063
105.907
101.751
97.5951
93.4393
89.2834
85.1276
80.9718
76.8159
72.6601
68.5042
64.3484
60.1926
56.0368
51.8811
47.7256
43.5702
39.4153
35.261
31.1077
26.956
22.8067
18.6613
14.5205
10.3863
6.25316
2.11093
419.979
413.452
409.205
403.752
399.044
394.254
389.704
385.209
380.816
376.478
372.192
367.943
363.721
359.52
355.334
351.158
346.989
342.824
338.663
334.504
330.346
326.188
322.032
317.875
313.719
309.563
305.407
301.251
297.096
292.94
288.784
284.628
280.472
276.317
272.161
268.005
263.849
259.694
255.538
251.382
247.226
243.07
238.915
234.759
230.603
226.447
222.291
218.135
213.98
209.824
205.668
201.512
197.357
193.201
189.045
184.889
180.733
176.577
172.422
168.266
164.11
159.954
155.798
151.642
147.486
143.331
139.175
135.019
130.863
126.707
122.552
118.396
114.24
110.084
105.928
101.773
97.6167
93.4609
89.305
85.1492
80.9933
76.8375
72.6817
68.5258
64.37
60.2142
56.0584
51.9027
47.7472
43.5918
39.4369
35.2826
31.1293
26.9776
22.8283
18.6829
14.5422
10.4087
6.27428
2.12891
419.881
413.469
409.237
403.78
399.065
394.273
389.723
385.229
380.836
376.497
372.211
367.962
363.74
359.539
355.353
351.177
347.008
342.843
338.682
334.523
330.365
326.207
322.051
317.894
313.738
309.582
305.426
301.27
297.115
292.959
288.803
284.647
280.491
276.336
272.18
268.024
263.868
259.712
255.557
251.401
247.245
243.089
238.933
234.778
230.622
226.466
222.31
218.154
213.999
209.843
205.687
201.531
197.375
193.22
189.064
184.908
180.752
176.596
172.44
168.285
164.129
159.973
155.817
151.661
147.505
143.349
139.194
135.038
130.882
126.726
122.57
118.415
114.259
110.103
105.947
101.791
97.6356
93.4797
89.3239
85.1681
81.0122
76.8564
72.7005
68.5447
64.3889
60.2331
56.0773
51.9216
47.7661
43.6107
39.4558
35.3015
31.1481
26.9965
22.8472
18.7019
14.5612
10.4284
6.29278
2.14461
419.798
413.482
409.263
403.803
399.084
394.29
389.74
385.245
380.852
376.513
372.228
367.978
363.757
359.556
355.369
351.193
347.024
342.859
338.698
334.539
330.381
326.224
322.067
317.911
313.754
309.598
305.442
301.287
297.131
292.975
288.819
284.663
280.508
276.352
272.196
268.04
263.884
259.729
255.573
251.417
247.261
243.105
238.95
234.794
230.638
226.482
222.326
218.171
214.015
209.859
205.703
201.547
197.392
193.236
189.08
184.924
180.768
176.613
172.457
168.301
164.145
159.989
155.833
151.677
147.522
143.366
139.21
135.054
130.898
126.742
122.587
118.431
114.275
110.119
105.963
101.808
97.6518
93.4959
89.3401
85.1843
81.0284
76.8726
72.7167
68.5609
64.4051
60.2493
56.0935
51.9378
47.7822
43.6269
39.472
35.3177
31.1643
27.0127
22.8633
18.7181
14.5774
10.4453
6.30865
2.15805
419.731
413.493
409.286
403.823
399.099
394.304
389.753
385.259
380.866
376.527
372.241
367.991
363.77
359.569
355.383
351.207
347.037
342.873
338.712
334.552
330.394
326.237
322.08
317.924
313.768
309.612
305.456
301.3
297.144
292.988
288.833
284.677
280.521
276.365
272.209
268.054
263.898
259.742
255.586
251.431
247.275
243.119
238.963
234.807
230.651
226.496
222.34
218.184
214.028
209.872
205.717
201.561
197.405
193.249
189.094
184.938
180.782
176.626
172.47
168.314
164.158
160.003
155.847
151.691
147.535
143.379
139.223
135.068
130.912
126.756
122.6
118.444
114.289
110.133
105.977
101.821
97.6653
93.5094
89.3536
85.1978
81.0419
76.8861
72.7302
68.5744
64.4186
60.2628
56.107
51.9513
47.7957
43.6404
39.4855
35.3311
31.1778
27.0261
22.8768
18.7316
14.591
10.4595
6.32189
2.16924
419.679
413.5
409.303
403.839
399.112
394.315
389.764
385.27
380.877
376.538
372.252
368.002
363.781
359.58
355.394
351.217
347.048
342.884
338.722
334.563
330.405
326.248
322.091
317.935
313.779
309.623
305.467
301.311
297.155
292.999
288.843
284.688
280.532
276.376
272.22
268.064
263.909
259.753
255.597
251.441
247.286
243.13
238.974
234.818
230.662
226.506
222.351
218.195
214.039
209.883
205.727
201.572
197.416
193.26
189.104
184.948
180.793
176.637
172.481
168.325
164.169
160.013
155.858
151.702
147.546
143.39
139.234
135.078
130.923
126.767
122.611
118.455
114.299
110.144
105.988
101.832
97.676
93.5202
89.3644
85.2086
81.0527
76.8969
72.741
68.5852
64.4294
60.2735
56.1178
51.9621
47.8065
43.6512
39.4963
35.3419
31.1886
27.0369
22.8876
18.7424
14.6018
10.4708
6.33248
2.17818
419.64
413.506
409.317
403.851
399.121
394.323
389.773
385.278
380.885
376.546
372.26
368.01
363.789
359.588
355.402
351.225
347.056
342.892
338.73
334.571
330.413
326.256
322.099
317.943
313.787
309.631
305.475
301.319
297.163
293.007
288.851
284.696
280.54
276.384
272.228
268.073
263.917
259.761
255.605
251.449
247.294
243.138
238.982
234.826
230.67
226.515
222.359
218.203
214.047
209.891
205.736
201.58
197.424
193.268
189.112
184.957
180.801
176.645
172.489
168.333
164.177
160.021
155.866
151.71
147.554
143.398
139.242
135.086
130.931
126.775
122.619
118.463
114.307
110.152
105.996
101.84
97.6841
93.5283
89.3725
85.2166
81.0608
76.905
72.7491
68.5933
64.4374
60.2816
56.1259
51.9702
47.8146
43.6593
39.5044
35.35
31.1967
27.045
22.8957
18.7506
14.6099
10.4793
6.34044
2.18487
419.614
413.509
409.326
403.859
399.127
394.329
389.778
385.283
380.89
376.552
372.266
368.016
363.795
359.593
355.407
351.231
347.062
342.897
338.736
334.576
330.418
326.261
322.105
317.948
313.792
309.636
305.48
301.324
297.168
293.013
288.857
284.701
280.545
276.39
272.234
268.078
263.922
259.766
255.611
251.455
247.299
243.143
238.987
234.832
230.676
226.52
222.364
218.208
214.053
209.897
205.741
201.585
197.429
193.274
189.118
184.962
180.806
176.65
172.494
168.339
164.183
160.027
155.871
151.715
147.559
143.403
139.248
135.092
130.936
126.78
122.624
118.469
114.313
110.157
106.001
101.845
97.6895
93.5337
89.3779
85.222
81.0662
76.9104
72.7545
68.5987
64.4428
60.287
56.1313
51.9756
47.82
43.6647
39.5097
35.3554
31.2021
27.0504
22.9011
18.756
14.6154
10.485
6.34574
2.18934
419.601
413.511
409.33
403.863
399.13
394.331
389.781
385.286
380.893
376.554
372.269
368.019
363.797
359.596
355.41
351.233
347.064
342.9
338.738
334.579
330.421
326.264
322.107
317.951
313.795
309.639
305.483
301.327
297.171
293.015
288.86
284.704
280.548
276.392
272.236
268.081
263.925
259.769
255.613
251.458
247.302
243.146
238.99
234.834
230.678
226.523
222.367
218.211
214.055
209.899
205.744
201.588
197.432
193.276
189.12
184.965
180.809
176.653
172.497
168.341
164.185
160.03
155.874
151.718
147.562
143.406
139.25
135.095
130.939
126.783
122.627
118.471
114.316
110.16
106.004
101.848
97.6922
93.5364
89.3806
85.2247
81.0689
76.9131
72.7572
68.6014
64.4455
60.2897
56.134
51.9783
47.8227
43.6674
39.5124
35.3581
31.2048
27.0531
22.9038
18.7587
14.6181
10.4878
6.34839
2.19157
419.601
413.511
409.33
403.863
399.13
394.331
389.781
385.286
380.893
376.554
372.269
368.019
363.797
359.596
355.41
351.233
347.064
342.9
338.738
334.579
330.421
326.264
322.107
317.951
313.795
309.639
305.483
301.327
297.171
293.015
288.86
284.704
280.548
276.392
272.236
268.081
263.925
259.769
255.613
251.458
247.302
243.146
238.99
234.834
230.678
226.523
222.367
218.211
214.055
209.899
205.744
201.588
197.432
193.276
189.121
184.965
180.809
176.653
172.497
168.341
164.185
160.03
155.874
151.718
147.562
143.406
139.25
135.095
130.939
126.783
122.627
118.471
114.316
110.16
106.004
101.848
97.6922
93.5364
89.3806
85.2247
81.0689
76.9131
72.7572
68.6014
64.4455
60.2897
56.134
51.9783
47.8227
43.6674
39.5125
35.3581
31.2048
27.0531
22.9038
18.7587
14.6181
10.4878
6.34839
2.19157
419.614
413.509
409.326
403.859
399.127
394.328
389.778
385.283
380.89
376.552
372.266
368.016
363.795
359.593
355.407
351.231
347.062
342.897
338.736
334.576
330.418
326.261
322.105
317.948
313.792
309.636
305.48
301.324
297.168
293.013
288.857
284.701
280.545
276.39
272.234
268.078
263.922
259.766
255.611
251.455
247.299
243.143
238.987
234.832
230.676
226.52
222.364
218.208
214.053
209.897
205.741
201.585
197.429
193.274
189.118
184.962
180.806
176.65
172.494
168.339
164.183
160.027
155.871
151.715
147.559
143.403
139.248
135.092
130.936
126.78
122.624
118.469
114.313
110.157
106.001
101.845
97.6895
93.5337
89.3779
85.222
81.0662
76.9104
72.7545
68.5987
64.4428
60.287
56.1313
51.9756
47.82
43.6647
39.5098
35.3554
31.2021
27.0504
22.9011
18.756
14.6154
10.485
6.34574
2.18934
419.64
413.506
409.317
403.851
399.121
394.323
389.773
385.278
380.885
376.546
372.26
368.01
363.789
359.588
355.402
351.225
347.056
342.892
338.73
334.571
330.413
326.256
322.099
317.943
313.787
309.631
305.475
301.319
297.163
293.007
288.851
284.696
280.54
276.384
272.228
268.073
263.917
259.761
255.605
251.449
247.294
243.138
238.982
234.826
230.67
226.515
222.359
218.203
214.047
209.891
205.736
201.58
197.424
193.268
189.112
184.957
180.801
176.645
172.489
168.333
164.177
160.021
155.866
151.71
147.554
143.398
139.242
135.086
130.931
126.775
122.619
118.463
114.307
110.152
105.996
101.84
97.6841
93.5283
89.3725
85.2166
81.0608
76.905
72.7491
68.5933
64.4375
60.2816
56.1259
51.9702
47.8146
43.6593
39.5044
35.35
31.1967
27.045
22.8957
18.7506
14.6099
10.4793
6.34044
2.18488
419.679
413.5
409.303
403.839
399.112
394.315
389.764
385.27
380.877
376.538
372.252
368.002
363.781
359.58
355.393
351.217
347.048
342.884
338.722
334.563
330.405
326.248
322.091
317.935
313.779
309.623
305.467
301.311
297.155
292.999
288.843
284.688
280.532
276.376
272.22
268.064
263.909
259.753
255.597
251.441
247.286
243.13
238.974
234.818
230.662
226.506
222.351
218.195
214.039
209.883
205.727
201.572
197.416
193.26
189.104
184.949
180.793
176.637
172.481
168.325
164.169
160.013
155.858
151.702
147.546
143.39
139.234
135.078
130.923
126.767
122.611
118.455
114.299
110.143
105.988
101.832
97.676
93.5202
89.3644
85.2085
81.0527
76.8969
72.741
68.5852
64.4294
60.2736
56.1178
51.9621
47.8066
43.6512
39.4963
35.3419
31.1886
27.0369
22.8876
18.7425
14.6018
10.4708
6.33249
2.17818
419.731
413.493
409.286
403.823
399.099
394.304
389.753
385.259
380.866
376.527
372.241
367.991
363.77
359.569
355.383
351.206
347.037
342.873
338.711
334.552
330.394
326.237
322.08
317.924
313.768
309.612
305.456
301.3
297.144
292.988
288.833
284.677
280.521
276.365
272.209
268.054
263.898
259.742
255.586
251.431
247.275
243.119
238.963
234.807
230.651
226.496
222.34
218.184
214.028
209.872
205.717
201.561
197.405
193.249
189.094
184.938
180.782
176.626
172.47
168.314
164.158
160.003
155.847
151.691
147.535
143.379
139.223
135.068
130.912
126.756
122.6
118.444
114.289
110.133
105.977
101.821
97.6652
93.5094
89.3536
85.1977
81.0419
76.8861
72.7302
68.5744
64.4186
60.2628
56.107
51.9513
47.7958
43.6404
39.4855
35.3312
31.1778
27.0262
22.8768
18.7316
14.591
10.4595
6.32189
2.16924
419.798
413.482
409.263
403.803
399.084
394.29
389.74
385.245
380.852
376.513
372.228
367.978
363.757
359.556
355.369
351.193
347.024
342.859
338.698
334.539
330.381
326.223
322.067
317.91
313.754
309.598
305.442
301.287
297.131
292.975
288.819
284.663
280.508
276.352
272.196
268.04
263.884
259.729
255.573
251.417
247.261
243.105
238.95
234.794
230.638
226.482
222.326
218.171
214.015
209.859
205.703
201.547
197.392
193.236
189.08
184.924
180.768
176.613
172.457
168.301
164.145
159.989
155.833
151.677
147.522
143.366
139.21
135.054
130.898
126.742
122.587
118.431
114.275
110.119
105.963
101.808
97.6517
93.4959
89.3401
85.1843
81.0284
76.8726
72.7167
68.5609
64.4051
60.2493
56.0935
51.9378
47.7823
43.6269
39.472
35.3177
31.1643
27.0127
22.8634
18.7181
14.5774
10.4453
6.30866
2.15806
419.881
413.469
409.236
403.78
399.065
394.273
389.723
385.229
380.836
376.497
372.211
367.962
363.74
359.539
355.353
351.177
347.008
342.843
338.682
334.523
330.364
326.207
322.051
317.894
313.738
309.582
305.426
301.27
297.115
292.959
288.803
284.647
280.491
276.336
272.18
268.024
263.868
259.712
255.557
251.401
247.245
243.089
238.933
234.778
230.622
226.466
222.31
218.154
213.999
209.843
205.687
201.531
197.375
193.22
189.064
184.908
180.752
176.596
172.441
168.285
164.129
159.973
155.817
151.661
147.505
143.35
139.194
135.038
130.882
126.726
122.57
118.415
114.259
110.103
105.947
101.791
97.6356
93.4797
89.3239
85.1681
81.0122
76.8564
72.7005
68.5447
64.3889
60.2331
56.0773
51.9216
47.7661
43.6108
39.4558
35.3015
31.1482
26.9965
22.8472
18.7019
14.5612
10.4284
6.29279
2.14462
419.979
413.452
409.205
403.752
399.044
394.254
389.704
385.209
380.816
376.478
372.192
367.943
363.721
359.52
355.334
351.158
346.989
342.824
338.663
334.504
330.346
326.188
322.032
317.875
313.719
309.563
305.407
301.251
297.096
292.94
288.784
284.628
280.472
276.317
272.161
268.005
263.849
259.694
255.538
251.382
247.226
243.07
238.915
234.759
230.603
226.447
222.291
218.136
213.98
209.824
205.668
201.512
197.357
193.201
189.045
184.889
180.733
176.577
172.422
168.266
164.11
159.954
155.798
151.642
147.486
143.331
139.175
135.019
130.863
126.707
122.552
118.396
114.24
110.084
105.928
101.772
97.6167
93.4608
89.305
85.1492
80.9933
76.8375
72.6817
68.5258
64.37
60.2142
56.0584
51.9027
47.7472
43.5919
39.4369
35.2826
31.1293
26.9776
22.8283
18.6829
14.5422
10.4087
6.27429
2.12892
420.095
413.43
409.169
403.721
399.019
394.232
389.681
385.187
380.794
376.456
372.171
367.921
363.7
359.499
355.312
351.136
346.967
342.803
338.641
334.482
330.324
326.167
322.01
317.854
313.698
309.542
305.386
301.23
297.074
292.918
288.762
284.607
280.451
276.295
272.139
267.984
263.828
259.672
255.516
251.36
247.205
243.049
238.893
234.737
230.581
226.426
222.27
218.114
213.958
209.802
205.647
201.491
197.335
193.179
189.023
184.868
180.712
176.556
172.4
168.244
164.088
159.932
155.777
151.621
147.465
143.309
139.153
134.997
130.842
126.686
122.53
118.374
114.218
110.063
105.907
101.751
97.5951
93.4392
89.2834
85.1276
80.9717
76.8159
72.6601
68.5042
64.3484
60.1926
56.0368
51.8812
47.7256
43.5703
39.4153
35.261
31.1077
26.9561
22.8068
18.6613
14.5206
10.3863
6.25317
2.11094
420.23
413.403
409.127
403.687
398.991
394.207
389.656
385.163
380.769
376.431
372.146
367.896
363.675
359.474
355.288
351.112
346.943
342.778
338.617
334.458
330.3
326.143
321.986
317.83
313.673
309.517
305.361
301.206
297.05
292.894
288.738
284.582
280.427
276.271
272.115
267.959
263.803
259.648
255.492
251.336
247.18
243.024
238.869
234.713
230.557
226.401
222.245
218.09
213.934
209.778
205.622
201.466
197.311
193.155
188.999
184.843
180.687
176.532
172.376
168.22
164.064
159.908
155.752
151.596
147.441
143.285
139.129
134.973
130.817
126.661
122.506
118.35
114.194
110.038
105.882
101.727
97.5708
93.415
89.2591
85.1033
80.9475
76.7916
72.6358
68.4799
64.3241
60.1683
56.0126
51.8569
47.7013
43.546
39.3911
35.2368
31.0835
26.9318
22.7825
18.637
14.4962
10.3611
6.22944
2.09066
420.385
413.368
409.081
403.649
398.96
394.179
389.628
385.135
380.742
376.404
372.119
367.869
363.648
359.447
355.261
351.085
346.916
342.751
338.59
334.431
330.273
326.116
321.959
317.803
313.646
309.49
305.334
301.179
297.023
292.867
288.711
284.555
280.4
276.244
272.088
267.932
263.776
259.621
255.465
251.309
247.153
242.997
238.842
234.686
230.53
226.374
222.218
218.063
213.907
209.751
205.595
201.439
197.284
193.128
188.972
184.816
180.66
176.505
172.349
168.193
164.037
159.881
155.725
151.569
147.414
143.258
139.102
134.946
130.79
126.634
122.479
118.323
114.167
110.011
105.855
101.7
97.5438
93.388
89.2322
85.0763
80.9205
76.7646
72.6088
68.453
64.2971
60.1413
55.9856
51.8299
47.6744
43.519
39.3641
35.2098
31.0565
26.9048
22.7556
18.61
14.4692
10.3333
6.2031
2.06806
420.564
413.326
409.03
403.608
398.926
394.148
389.597
385.104
380.711
376.374
372.089
367.839
363.618
359.418
355.231
351.055
346.886
342.722
338.56
334.401
330.243
326.086
321.929
317.773
313.617
309.461
305.305
301.149
296.993
292.837
288.682
284.526
280.37
276.214
272.058
267.903
263.747
259.591
255.435
251.279
247.124
242.968
238.812
234.656
230.5
226.345
222.189
218.033
213.877
209.721
205.566
201.41
197.254
193.098
188.942
184.787
180.631
176.475
172.319
168.163
164.007
159.852
155.696
151.54
147.384
143.228
139.072
134.916
130.761
126.605
122.449
118.293
114.137
109.982
105.826
101.67
97.5141
93.3583
89.2025
85.0467
80.8908
76.735
72.5791
68.4233
64.2675
60.1117
55.9559
51.8002
47.6447
43.4894
39.3344
35.1801
31.0269
26.8752
22.726
18.5803
14.4394
10.3028
6.17416
2.04313
420.768
413.273
408.975
403.564
398.889
394.114
389.563
385.071
380.678
376.341
372.056
367.807
363.586
359.385
355.199
351.023
346.854
342.689
338.528
334.369
330.211
326.054
321.897
317.741
313.584
309.428
305.273
301.117
296.961
292.805
288.649
284.493
280.338
276.182
272.026
267.87
263.715
259.559
255.403
251.247
247.091
242.936
238.78
234.624
230.468
226.312
222.156
218.001
213.845
209.689
205.533
201.378
197.222
193.066
188.91
184.754
180.599
176.443
172.287
168.131
163.975
159.819
155.663
151.508
147.352
143.196
139.04
134.884
130.728
126.573
122.417
118.261
114.105
109.949
105.793
101.638
97.4818
93.326
89.1702
85.0144
80.8585
76.7027
72.5468
68.391
64.2352
60.0794
55.9236
51.7679
47.6124
43.4571
39.3022
35.1479
30.9946
26.8429
22.6937
18.548
14.407
10.2697
6.1427
2.01588
421.002
413.209
408.915
403.517
398.848
394.078
389.527
385.035
380.642
376.305
372.021
367.772
363.551
359.35
355.164
350.988
346.819
342.655
338.493
334.334
330.176
326.019
321.862
317.706
313.55
309.394
305.238
301.082
296.926
292.77
288.615
284.459
280.303
276.147
271.991
267.836
263.68
259.524
255.368
251.212
247.057
242.901
238.745
234.589
230.433
226.278
222.122
217.966
213.81
209.654
205.499
201.343
197.187
193.031
188.875
184.72
180.564
176.408
172.252
168.096
163.94
159.785
155.629
151.473
147.317
143.161
139.005
134.849
130.694
126.538
122.382
118.226
114.07
109.915
105.759
101.603
97.4472
93.2913
89.1355
84.9797
80.8238
76.668
72.5122
68.3563
64.2005
60.0447
55.889
51.7333
47.5777
43.4224
39.2675
35.1132
30.9599
26.8083
22.6591
18.5133
14.3723
10.2344
6.10894
1.98648
421.272
413.131
408.851
403.469
398.806
394.039
389.488
384.997
380.604
376.268
371.983
367.735
363.514
359.313
355.127
350.951
346.782
342.618
338.457
334.297
330.139
325.982
321.826
317.669
313.513
309.357
305.201
301.045
296.889
292.734
288.578
284.422
280.266
276.111
271.955
267.799
263.643
259.487
255.332
251.176
247.02
242.864
238.708
234.553
230.397
226.241
222.085
217.929
213.774
209.618
205.462
201.306
197.15
192.995
188.839
184.683
180.527
176.371
172.215
168.06
163.904
159.748
155.592
151.436
147.28
143.124
138.969
134.813
130.657
126.501
122.345
118.19
114.034
109.878
105.722
101.566
97.4105
93.2547
89.0988
84.943
80.7872
76.6313
72.4755
68.3197
64.1639
60.0081
55.8523
51.6966
47.5411
43.3858
39.2308
35.0766
30.9233
26.7717
22.6225
18.4766
14.3355
10.1971
6.0731
1.95506
421.576
413.035
408.783
403.419
398.76
393.998
389.447
384.957
380.565
376.228
371.944
367.696
363.475
359.275
355.089
350.913
346.744
342.58
338.418
334.259
330.101
325.944
321.787
317.631
313.475
309.319
305.163
301.007
296.851
292.695
288.54
284.384
280.228
276.072
271.916
267.761
263.605
259.449
255.293
251.137
246.982
242.826
238.67
234.514
230.358
226.203
222.047
217.891
213.735
209.579
205.424
201.268
197.112
192.956
188.8
184.645
180.489
176.333
172.177
168.021
163.865
159.71
155.554
151.398
147.242
143.086
138.93
134.774
130.619
126.463
122.307
118.151
113.995
109.84
105.684
101.528
97.3721
93.2163
89.0605
84.9046
80.7488
76.593
72.4371
68.2813
64.1255
59.9697
55.8139
51.6583
47.5027
43.3474
39.1925
35.0382
30.885
26.7334
22.5842
18.4383
14.2972
10.1583
6.03538
1.9218
421.913
412.924
408.719
403.372
398.717
393.959
389.408
384.919
380.527
376.191
371.907
367.659
363.439
359.238
355.052
350.877
346.708
342.543
338.382
334.223
330.065
325.907
321.751
317.594
313.438
309.282
305.126
300.971
296.815
292.659
288.503
284.347
280.192
276.036
271.88
267.724
263.568
259.413
255.257
251.101
246.945
242.789
238.634
234.478
230.322
226.166
222.01
217.855
213.699
209.543
205.387
201.231
197.076
192.92
188.764
184.608
180.452
176.297
172.141
167.985
163.829
159.673
155.517
151.361
147.206
143.05
138.894
134.738
130.582
126.426
122.271
118.115
113.959
109.803
105.647
101.492
97.3357
93.1799
89.0241
84.8682
80.7124
76.5566
72.4007
68.2449
64.0891
59.9333
55.7775
51.6219
47.4663
43.311