/*--------------------------------*- C++ -*----------------------------------*\
| =========                 |                                                 |
| \\      /  F ield         | OpenFOAM: The Open Source CFD Toolbox           |
|  \\    /   O peration     | Version:  2.3.0                                 |
|   \\  /    A nd           | Web:      www.OpenFOAM.org                      |
|    \\/     M anipulation  |                                                 |
\*---------------------------------------------------------------------------*/
FoamFile
{
    version     2.0;
    format      ascii;
    class       volScalarField;
    location    "0.5";
    object      pB;
}
// * * * * * * * * * * * * * * * * * * * * * * * * * * * * * * * * * * * * * //

dimensions      [1 1 -3 0 0 -1 0];

internalField   nonuniform List<scalar> 
4000
(
18.7675
40.762
51.1421
53.13
50.6121
45.3215
38.9639
32.4498
26.3721
20.9965
16.4278
12.6549
9.61122
7.20102
5.32189
3.87545
2.77388
1.94227
1.31894
0.854569
0.510312
0.256094
0.0688869
-0.068647
-0.169516
-0.243361
-0.297377
-0.33682
-0.36562
-0.386607
-0.401909
-0.413045
-0.421158
-0.427047
-0.431333
-0.434438
-0.436697
-0.438322
-0.439502
-0.440346
-0.440958
-0.441387
-0.441702
-0.44192
-0.442078
-0.442184
-0.442261
-0.44231
-0.442342
-0.442357
-0.442368
-0.442362
-0.442357
-0.442339
-0.442322
-0.442296
-0.442273
-0.442246
-0.442222
-0.442195
-0.442171
-0.442143
-0.442119
-0.442089
-0.442061
-0.442031
-0.442001
-0.441964
-0.441925
-0.441876
-0.44182
-0.441744
-0.441651
-0.441525
-0.441361
-0.441137
-0.440838
-0.44043
-0.439882
-0.439135
-0.438121
-0.43674
-0.434859
-0.432298
-0.428823
-0.424123
-0.417808
-0.409383
-0.398278
-0.383882
-0.365678
-0.34349
-0.317996
-0.291557
-0.269627
-0.262156
-0.283396
-0.343036
-0.411251
-0.349512
20.6811
40.8933
50.677
52.6338
50.1555
44.9528
38.674
32.2303
26.2091
20.8795
16.3469
12.6022
9.57994
7.1859
5.3188
3.88122
2.78609
1.95914
1.3392
0.877279
0.534788
0.281846
0.0955667
-0.0412911
-0.141668
-0.215154
-0.268906
-0.308155
-0.336814
-0.357698
-0.372926
-0.384006
-0.392079
-0.397938
-0.402203
-0.405291
-0.407538
-0.409155
-0.410329
-0.411168
-0.411777
-0.412204
-0.412517
-0.412733
-0.412891
-0.412996
-0.413072
-0.41312
-0.413152
-0.413166
-0.413176
-0.413171
-0.413165
-0.413148
-0.413131
-0.413105
-0.413082
-0.413055
-0.413032
-0.413005
-0.412981
-0.412953
-0.412929
-0.412899
-0.412872
-0.412842
-0.412812
-0.412775
-0.412736
-0.412687
-0.412631
-0.412556
-0.412463
-0.412338
-0.412174
-0.411951
-0.411654
-0.411248
-0.410703
-0.409959
-0.40895
-0.407575
-0.405702
-0.403153
-0.399696
-0.39502
-0.388739
-0.380364
-0.369335
-0.355051
-0.337014
-0.315063
-0.289881
-0.263783
-0.242014
-0.233871
-0.251948
-0.302366
-0.353148
-0.286107
21.8696
40.96
50.0517
51.9132
49.4634
44.3676
38.1981
31.8576
25.9244
20.6685
16.1958
12.4989
9.5141
7.1489
5.30372
3.8826
2.79969
1.98178
1.36848
0.911436
0.572507
0.322168
0.137793
0.00233018
-0.0970256
-0.169764
-0.222967
-0.261815
-0.29018
-0.310849
-0.32592
-0.336885
-0.344873
-0.350671
-0.354891
-0.357946
-0.360169
-0.361768
-0.36293
-0.363759
-0.364362
-0.364785
-0.365093
-0.365306
-0.365462
-0.365565
-0.36564
-0.365686
-0.365718
-0.365732
-0.365741
-0.365736
-0.36573
-0.365712
-0.365695
-0.36567
-0.365648
-0.365621
-0.365598
-0.365571
-0.365548
-0.365519
-0.365496
-0.365466
-0.36544
-0.36541
-0.36538
-0.365343
-0.365305
-0.365255
-0.3652
-0.365125
-0.365033
-0.364909
-0.364747
-0.364526
-0.364232
-0.363831
-0.363291
-0.362554
-0.361555
-0.360193
-0.358339
-0.355815
-0.352392
-0.347763
-0.34155
-0.33327
-0.322377
-0.308288
-0.290521
-0.268931
-0.244183
-0.218476
-0.196684
-0.187076
-0.200027
-0.237525
-0.267896
-0.194987
22.0913
40.698
49.1416
50.8651
48.4456
43.4848
37.4646
31.2689
25.4625
20.3146
15.9307
12.3055
9.37714
7.05584
5.24428
3.84857
2.78468
1.9809
1.37806
0.928706
0.595424
0.349227
0.167889
0.0346529
-0.0630709
-0.134614
-0.186941
-0.225147
-0.253041
-0.273368
-0.288188
-0.298969
-0.306823
-0.312523
-0.316672
-0.319674
-0.321858
-0.323429
-0.32457
-0.325386
-0.325977
-0.326393
-0.326695
-0.326904
-0.327056
-0.327157
-0.32723
-0.327274
-0.327304
-0.327317
-0.327325
-0.32732
-0.327314
-0.327296
-0.327279
-0.327255
-0.327233
-0.327207
-0.327184
-0.327157
-0.327134
-0.327106
-0.327082
-0.327054
-0.327029
-0.326998
-0.326969
-0.326932
-0.326894
-0.326844
-0.326789
-0.326716
-0.326625
-0.326502
-0.326343
-0.326126
-0.325837
-0.325442
-0.324911
-0.324186
-0.323203
-0.321862
-0.320037
-0.317553
-0.314185
-0.309633
-0.303525
-0.295392
-0.284706
-0.270905
-0.25353
-0.232444
-0.208269
-0.183015
-0.161001
-0.149089
-0.1549
-0.175968
-0.182936
-0.101321
21.5904
40.0039
47.9209
49.4958
47.1161
42.3155
36.4813
30.4693
24.8269
19.8197
15.5525
12.0219
9.16875
6.90609
5.1396
3.7781
2.73991
1.95531
1.36669
0.927835
0.602275
0.361751
0.184577
0.0543952
-0.041089
-0.110992
-0.162117
-0.199443
-0.226693
-0.246549
-0.261025
-0.271555
-0.279224
-0.28479
-0.288841
-0.291771
-0.293902
-0.295436
-0.296549
-0.297344
-0.297921
-0.298327
-0.298621
-0.298823
-0.298971
-0.299069
-0.299138
-0.299179
-0.299209
-0.29922
-0.299227
-0.299222
-0.299215
-0.299197
-0.29918
-0.299157
-0.299136
-0.29911
-0.299088
-0.299061
-0.299038
-0.299011
-0.298987
-0.29896
-0.298935
-0.298905
-0.298876
-0.29884
-0.298801
-0.298753
-0.298698
-0.298626
-0.298537
-0.298417
-0.298261
-0.298048
-0.297766
-0.29738
-0.296861
-0.296153
-0.295191
-0.29388
-0.292095
-0.289666
-0.286374
-0.281926
-0.275962
-0.268027
-0.257615
-0.244191
-0.227319
-0.206863
-0.18338
-0.158619
-0.136198
-0.121315
-0.118578
-0.12129
-0.103667
-0.0141469
20.657
38.88
46.3824
47.8201
45.4956
40.8793
35.2651
29.473
24.0295
19.1943
15.0706
11.6569
8.89682
6.70707
4.99679
3.67806
2.67213
1.91165
1.34097
0.915381
0.599595
0.366257
0.194362
0.0680531
-0.0245915
-0.0924143
-0.142016
-0.178228
-0.204661
-0.22392
-0.237961
-0.248172
-0.255609
-0.261005
-0.264932
-0.267771
-0.269836
-0.271322
-0.2724
-0.27317
-0.273729
-0.274121
-0.274405
-0.274599
-0.274741
-0.274834
-0.274901
-0.274939
-0.274966
-0.274976
-0.274982
-0.274976
-0.274968
-0.274951
-0.274934
-0.274911
-0.274891
-0.274866
-0.274844
-0.274818
-0.274795
-0.274768
-0.274745
-0.274719
-0.274695
-0.274666
-0.274636
-0.2746
-0.274562
-0.274514
-0.274461
-0.27439
-0.274303
-0.274186
-0.274034
-0.273829
-0.273554
-0.27318
-0.272676
-0.271988
-0.271055
-0.269781
-0.268048
-0.265689
-0.262493
-0.258178
-0.252394
-0.244707
-0.234635
-0.221672
-0.205404
-0.185693
-0.163004
-0.138774
-0.115823
-0.0975394
-0.0855051
-0.0692622
-0.027316
0.0662904
19.4717
37.3663
44.5296
45.8515
43.6013
39.1927
33.8297
28.2914
23.0797
18.446
14.4913
11.2156
8.56587
6.46273
4.81938
3.55174
2.5844
1.85286
1.30375
0.894128
0.590128
0.365459
0.199936
0.0783026
-0.0109129
-0.0762238
-0.123986
-0.158852
-0.1843
-0.202841
-0.216356
-0.226184
-0.233341
-0.238533
-0.24231
-0.245041
-0.247025
-0.248453
-0.24949
-0.25023
-0.250766
-0.251143
-0.251415
-0.2516
-0.251734
-0.251822
-0.251884
-0.251919
-0.251944
-0.251953
-0.251957
-0.251951
-0.251942
-0.251924
-0.251908
-0.251885
-0.251866
-0.251842
-0.25182
-0.251794
-0.251772
-0.251746
-0.251724
-0.251698
-0.251675
-0.251647
-0.251617
-0.251582
-0.251544
-0.251497
-0.251444
-0.251376
-0.251292
-0.251178
-0.251032
-0.250833
-0.250569
-0.250209
-0.249723
-0.24906
-0.24816
-0.246932
-0.245261
-0.242988
-0.239909
-0.235752
-0.230186
-0.222797
-0.213128
-0.200705
-0.185137
-0.166274
-0.144476
-0.120828
-0.0973049
-0.0754619
-0.0540031
-0.0192934
0.0452962
0.138254
18.1411
35.5151
42.3749
43.6034
41.4483
37.2702
32.1878
26.9345
21.9852
17.581
13.8192
10.7016
8.17855
6.17507
4.60891
3.40033
2.4777
1.77974
1.25568
0.864656
0.574388
0.35983
0.20174
0.0855657
0.000353928
-0.0620237
-0.107639
-0.140935
-0.165235
-0.182937
-0.19584
-0.205221
-0.212052
-0.217006
-0.220609
-0.223214
-0.225106
-0.226467
-0.227455
-0.22816
-0.22867
-0.229028
-0.229286
-0.229461
-0.229586
-0.229668
-0.229726
-0.229757
-0.229779
-0.229786
-0.229789
-0.229782
-0.229772
-0.229755
-0.229738
-0.229716
-0.229698
-0.229674
-0.229653
-0.229628
-0.229606
-0.229581
-0.22956
-0.229535
-0.229513
-0.229485
-0.229456
-0.22942
-0.229384
-0.229338
-0.229286
-0.22922
-0.229139
-0.22903
-0.228889
-0.228699
-0.228447
-0.228102
-0.227638
-0.227004
-0.226144
-0.224969
-0.223372
-0.221198
-0.218255
-0.214285
-0.208972
-0.201928
-0.192724
-0.180916
-0.166136
-0.148219
-0.127404
-0.104414
-0.0803718
-0.0550767
-0.0246432
0.0270533
0.111302
0.199288
16.7303
33.3814
39.9384
41.0918
39.0523
35.1268
30.3519
25.4126
20.7543
16.6053
13.0591
10.1185
7.7375
5.84603
4.36684
3.22489
2.35281
1.69287
1.19721
0.827282
0.552615
0.349554
0.199923
0.0899615
0.00930733
-0.049731
-0.0929011
-0.124411
-0.147406
-0.164155
-0.176363
-0.185237
-0.191697
-0.196382
-0.199788
-0.202249
-0.204036
-0.205321
-0.206254
-0.206919
-0.207399
-0.207736
-0.207978
-0.208141
-0.208258
-0.208333
-0.208385
-0.208413
-0.208432
-0.208437
-0.208438
-0.20843
-0.208419
-0.208402
-0.208385
-0.208364
-0.208346
-0.208323
-0.208303
-0.208278
-0.208257
-0.208232
-0.208212
-0.208188
-0.208167
-0.208139
-0.208111
-0.208076
-0.20804
-0.207995
-0.207946
-0.207882
-0.207804
-0.2077
-0.207567
-0.207386
-0.207147
-0.20682
-0.20638
-0.20578
-0.204964
-0.203851
-0.202338
-0.200278
-0.19749
-0.193732
-0.188707
-0.182053
-0.173372
-0.16225
-0.14834
-0.131458
-0.111724
-0.0894984
-0.0650906
-0.0367125
0.00171867
0.0680373
0.168
0.247686
15.2789
31.0163
37.2451
38.3349
36.43
32.7779
28.3353
23.7367
19.3955
15.5258
12.2161
9.47011
7.24572
5.47788
4.09481
3.02667
2.21064
1.59293
1.12886
0.782416
0.52513
0.33489
0.194695
0.0916646
0.0160958
-0.039217
-0.0796602
-0.109177
-0.130717
-0.146404
-0.157837
-0.166145
-0.172194
-0.176578
-0.179765
-0.182067
-0.183737
-0.184938
-0.185809
-0.18643
-0.186878
-0.187191
-0.187415
-0.187565
-0.187671
-0.187739
-0.187785
-0.187809
-0.187825
-0.187828
-0.187828
-0.187818
-0.187807
-0.187789
-0.187772
-0.187752
-0.187734
-0.187712
-0.187692
-0.187668
-0.187648
-0.187624
-0.187604
-0.187582
-0.18756
-0.187534
-0.187506
-0.187472
-0.187437
-0.187394
-0.187346
-0.187285
-0.187211
-0.187113
-0.186987
-0.186817
-0.186592
-0.186286
-0.185873
-0.18531
-0.184545
-0.1835
-0.18208
-0.180149
-0.177535
-0.174013
-0.169309
-0.163088
-0.154983
-0.14461
-0.131645
-0.115885
-0.0973316
-0.0760088
-0.0514936
-0.0206438
0.0243527
0.102246
0.213413
0.282648
13.81
28.4647
34.3225
35.353
33.599
30.2396
26.152
21.9183
17.9181
14.3498
11.2959
8.76092
6.7065
5.07309
3.79471
2.80705
2.05225
1.48071
1.05122
0.730513
0.492288
0.316117
0.186279
0.090859
0.020873
-0.0303506
-0.0678014
-0.0951317
-0.115074
-0.129596
-0.140179
-0.147868
-0.153465
-0.15752
-0.160467
-0.162594
-0.164138
-0.165247
-0.166051
-0.166622
-0.167034
-0.167321
-0.167525
-0.167662
-0.167757
-0.167816
-0.167857
-0.167876
-0.167889
-0.167889
-0.167887
-0.167876
-0.167864
-0.167846
-0.16783
-0.167809
-0.167793
-0.167771
-0.167752
-0.167729
-0.167709
-0.167686
-0.167667
-0.167645
-0.167625
-0.167598
-0.167571
-0.167538
-0.167504
-0.167463
-0.167418
-0.16736
-0.16729
-0.167198
-0.16708
-0.166922
-0.166713
-0.166429
-0.166046
-0.165523
-0.164814
-0.163845
-0.162528
-0.160738
-0.158316
-0.155053
-0.150701
-0.144951
-0.137469
-0.127903
-0.115951
-0.101395
-0.0841284
-0.0638805
-0.0396083
-0.00710226
0.0426718
0.128626
0.246261
0.304032
12.3362
25.7643
31.1989
32.1676
30.5776
27.5282
23.8163
19.9694
16.332
13.0851
10.3047
7.99557
6.12344
4.63439
3.46858
2.56758
1.87879
1.35709
0.964946
0.672066
0.454466
0.293526
0.174904
0.0877273
0.0237882
-0.0230071
-0.0572183
-0.0821815
-0.100395
-0.113657
-0.123319
-0.130339
-0.135446
-0.139146
-0.141834
-0.143773
-0.145179
-0.146189
-0.14692
-0.147438
-0.147812
-0.14807
-0.148254
-0.148375
-0.148458
-0.148509
-0.148543
-0.148558
-0.148567
-0.148566
-0.148561
-0.148549
-0.148536
-0.148517
-0.148501
-0.148482
-0.148465
-0.148444
-0.148426
-0.148403
-0.148384
-0.148362
-0.148344
-0.148323
-0.148302
-0.148277
-0.14825
-0.148218
-0.148186
-0.148147
-0.148104
-0.148049
-0.147984
-0.147899
-0.14779
-0.147644
-0.147453
-0.147192
-0.146842
-0.146363
-0.145714
-0.144828
-0.143623
-0.141985
-0.139771
-0.136791
-0.132817
-0.127574
-0.120758
-0.112052
-0.101177
-0.087902
-0.0720333
-0.0530593
-0.0294551
0.00373719
0.0562545
0.146498
0.265894
0.312166
10.8644
22.9465
27.9018
28.8009
27.3851
24.661
21.3431
17.9027
14.6475
11.74
9.24884
7.17909
5.50038
4.16471
3.11865
2.30994
1.69151
1.22299
0.87075
0.607612
0.412073
0.26743
0.160815
0.0824633
0.0249975
-0.0170576
-0.0478016
-0.0702319
-0.0865962
-0.0985089
-0.107188
-0.113491
-0.118077
-0.121397
-0.123808
-0.125546
-0.126805
-0.127708
-0.128362
-0.128824
-0.129155
-0.129384
-0.129545
-0.12965
-0.129721
-0.129762
-0.129789
-0.1298
-0.129806
-0.129802
-0.129795
-0.129782
-0.129767
-0.129749
-0.129733
-0.129713
-0.129697
-0.129677
-0.129659
-0.129638
-0.129619
-0.129598
-0.129581
-0.12956
-0.12954
-0.129515
-0.129489
-0.129459
-0.129428
-0.129391
-0.12935
-0.129299
-0.129239
-0.129161
-0.129061
-0.128929
-0.128756
-0.128521
-0.128205
-0.127774
-0.12719
-0.126392
-0.125308
-0.123834
-0.121843
-0.119163
-0.115594
-0.110889
-0.104779
-0.0969813
-0.0872398
-0.0753212
-0.0609645
-0.0434832
-0.0210246
0.0117842
0.0648747
0.155561
0.272232
0.307738
9.3979
20.0365
24.4572
25.2754
24.041
21.6554
18.7476
15.7311
12.8752
10.3229
8.13519
6.31679
4.84144
3.6672
2.74731
2.03593
1.49179
1.07946
0.769403
0.537735
0.365552
0.238173
0.144278
0.0752763
0.0246695
-0.0123635
-0.0394348
-0.0591822
-0.0735879
-0.0840725
-0.0917101
-0.0972551
-0.101288
-0.104207
-0.106326
-0.107851
-0.108956
-0.109746
-0.110317
-0.11072
-0.111007
-0.111204
-0.111341
-0.111428
-0.111487
-0.111519
-0.111539
-0.111545
-0.111547
-0.11154
-0.111532
-0.111516
-0.111501
-0.111482
-0.111466
-0.111448
-0.111432
-0.111412
-0.111395
-0.111374
-0.111357
-0.111336
-0.111319
-0.111299
-0.111279
-0.111255
-0.11123
-0.111201
-0.111172
-0.111137
-0.1111
-0.111052
-0.110997
-0.110926
-0.110837
-0.110719
-0.110566
-0.110358
-0.110079
-0.109698
-0.109182
-0.108478
-0.107522
-0.106222
-0.104467
-0.102106
-0.098964
-0.0948261
-0.089457
-0.08261
-0.0740548
-0.0635629
-0.0508323
-0.035073
-0.0142647
0.017048
0.0685139
0.155888
0.265708
0.291715
7.93788
17.0552
20.8896
21.6134
20.5653
18.5293
16.0455
13.4677
11.026
8.84291
6.97082
5.41425
4.15094
3.14518
2.35709
1.74748
1.28107
0.927586
0.661737
0.463066
0.315384
0.206121
0.125578
0.066391
0.0229842
-0.00877704
-0.0319934
-0.0489253
-0.061276
-0.0702623
-0.076808
-0.0815579
-0.0850119
-0.0875091
-0.0893216
-0.0906243
-0.0915668
-0.0922392
-0.0927241
-0.0930637
-0.0933052
-0.0934681
-0.0935809
-0.0936502
-0.0936956
-0.0937174
-0.0937304
-0.0937315
-0.0937305
-0.0937205
-0.0937097
-0.093693
-0.0936769
-0.0936578
-0.0936419
-0.0936234
-0.0936078
-0.093589
-0.0935726
-0.0935523
-0.0935354
-0.0935159
-0.0934991
-0.0934792
-0.09346
-0.0934362
-0.0934126
-0.0933848
-0.0933575
-0.0933253
-0.0932906
-0.093247
-0.0931974
-0.0931342
-0.0930564
-0.0929533
-0.0928202
-0.0926404
-0.0923999
-0.0920721
-0.0916288
-0.0910232
-0.0902013
-0.0890846
-0.0875775
-0.0855516
-0.0828564
-0.0793104
-0.0747133
-0.0688541
-0.0615318
-0.0525314
-0.0415376
-0.027729
-0.00907672
0.0196414
0.067358
0.147899
0.247194
0.265285
6.4844
14.0191
17.2215
17.8372
16.9781
15.3007
13.2527
11.1264
9.11139
7.30915
5.76311
4.47726
3.4334
2.60215
1.95067
1.44663
1.06091
0.768543
0.548635
0.384273
0.262076
0.171663
0.105016
0.0560452
0.0201324
-0.00614206
-0.0253467
-0.0393489
-0.0495615
-0.0569892
-0.062399
-0.0663222
-0.0691739
-0.0712332
-0.0727274
-0.0737988
-0.0745728
-0.0751225
-0.0755177
-0.0757919
-0.0759856
-0.0761136
-0.0762008
-0.0762515
-0.0762832
-0.0762952
-0.0763009
-0.0762968
-0.076292
-0.0762791
-0.076266
-0.0762479
-0.0762311
-0.0762117
-0.0761959
-0.0761777
-0.0761623
-0.076144
-0.0761281
-0.0761086
-0.0760923
-0.0760736
-0.0760571
-0.0760375
-0.0760185
-0.0759955
-0.075973
-0.0759468
-0.0759214
-0.0758916
-0.07586
-0.0758207
-0.0757767
-0.0757217
-0.0756552
-0.0755677
-0.0754558
-0.0753053
-0.0751051
-0.0748323
-0.0744642
-0.0739615
-0.0732797
-0.0723536
-0.0711049
-0.0694271
-0.0671965
-0.0642638
-0.060465
-0.0556256
-0.0495766
-0.0421259
-0.0329717
-0.0213312
-0.00531515
0.0197771
0.0617846
0.132325
0.217936
0.229801
5.03681
10.9421
13.4739
13.9683
13.2997
11.988
10.3853
8.72079
7.14286
5.73107
4.51963
3.51182
2.69351
2.04174
1.53085
1.13551
0.832921
0.603554
0.431024
0.302058
0.206164
0.135211
0.0829114
0.0444884
0.0163136
-0.00429547
-0.019358
-0.0303358
-0.0383414
-0.0441605
-0.048398
-0.0514681
-0.0536985
-0.0553061
-0.0564719
-0.0573048
-0.0579051
-0.0583282
-0.0586307
-0.0588375
-0.0589819
-0.059074
-0.0591349
-0.0591665
-0.0591842
-0.0591863
-0.0591846
-0.0591751
-0.0591663
-0.0591506
-0.0591352
-0.0591158
-0.0590983
-0.0590787
-0.0590627
-0.0590449
-0.0590297
-0.0590117
-0.0589964
-0.0589776
-0.0589619
-0.0589438
-0.0589276
-0.0589082
-0.0588895
-0.0588672
-0.058846
-0.0588215
-0.0587979
-0.0587706
-0.0587423
-0.0587073
-0.0586692
-0.0586226
-0.0585679
-0.0584965
-0.0584065
-0.0582863
-0.0581277
-0.0579117
-0.0576213
-0.0572248
-0.0566879
-0.0559589
-0.0549771
-0.0536585
-0.0519068
-0.0496053
-0.0466264
-0.0428333
-0.0380914
-0.0322403
-0.0250168
-0.0157394
-0.00279007
0.0177611
0.0523441
0.110168
0.179482
0.186752
3.59407
7.83551
9.66609
10.0279
9.55039
8.60981
7.45979
6.26507
5.13218
4.11833
3.24814
2.5241
1.93609
1.46769
1.10049
0.816312
0.598779
0.433892
0.309868
0.217154
0.148204
0.09719
0.0595926
0.0319797
0.0117348
-0.00306823
-0.0138863
-0.0217649
-0.0275094
-0.0316804
-0.0347172
-0.0369134
-0.0385076
-0.0396526
-0.0404821
-0.0410708
-0.0414933
-0.0417866
-0.0419942
-0.0421318
-0.0422258
-0.0422812
-0.0423152
-0.0423274
-0.0423309
-0.042323
-0.0423139
-0.0422989
-0.042286
-0.0422674
-0.0422498
-0.0422291
-0.0422111
-0.0421912
-0.0421751
-0.0421575
-0.0421425
-0.0421248
-0.0421099
-0.0420918
-0.0420766
-0.042059
-0.0420431
-0.0420238
-0.0420054
-0.0419839
-0.041964
-0.0419413
-0.0419196
-0.0418948
-0.0418698
-0.0418394
-0.0418075
-0.0417694
-0.0417267
-0.0416718
-0.0416043
-0.0415151
-0.0413991
-0.0412413
-0.0410306
-0.0407431
-0.0403549
-0.0398279
-0.0391197
-0.0381692
-0.0369076
-0.0352512
-0.0331093
-0.0303832
-0.0269752
-0.0227644
-0.0175469
-0.0107953
-0.00127183
0.0139808
0.0397348
0.082653
0.133631
0.137721
2.15492
4.70888
5.81616
6.03688
5.75049
5.18471
4.49259
3.77342
3.09128
2.48071
1.95655
1.52036
1.16608
0.883828
0.662567
0.491312
0.36021
0.260865
0.186159
0.130312
0.0887697
0.0580393
0.0354
0.0187858
0.00660925
-0.00228661
-0.00878625
-0.0135121
-0.0169565
-0.019451
-0.0212665
-0.0225738
-0.0235211
-0.0241958
-0.0246832
-0.0250236
-0.0252651
-0.0254265
-0.0255376
-0.0256048
-0.0256475
-0.0256657
-0.0256725
-0.0256651
-0.0256543
-0.0256362
-0.0256197
-0.0255992
-0.025582
-0.0255605
-0.0255408
-0.0255189
-0.0255004
-0.0254804
-0.0254641
-0.0254465
-0.0254317
-0.0254142
-0.0253997
-0.0253822
-0.0253676
-0.0253504
-0.0253346
-0.0253155
-0.0252974
-0.0252766
-0.0252581
-0.0252372
-0.0252175
-0.0251951
-0.0251735
-0.0251479
-0.0251223
-0.0250929
-0.0250624
-0.0250244
-0.0249798
-0.0249221
-0.0248494
-0.024751
-0.0246212
-0.0244447
-0.0242078
-0.0238866
-0.0234568
-0.0228806
-0.0221173
-0.0211161
-0.0198232
-0.0181791
-0.0161245
-0.0135838
-0.0104286
-0.00632537
-0.000497669
0.00889047
0.0247746
0.0511842
0.0823645
0.084369
0.717958
1.57072
1.94134
2.01559
1.92023
1.73143
1.50035
1.26015
1.03221
0.828126
0.652854
0.506976
0.388478
0.294058
0.220078
0.162813
0.118972
0.0858111
0.060912
0.0423019
0.028446
0.0182075
0.0106807
0.00517893
0.00115411
-0.00177352
-0.00391023
-0.00545098
-0.00657178
-0.00737273
-0.00795441
-0.00836396
-0.00865782
-0.00885741
-0.00899923
-0.00908859
-0.00914728
-0.00917542
-0.00918903
-0.00918516
-0.00917619
-0.00915678
-0.00913631
-0.00910916
-0.0090841
-0.00905587
-0.00903195
-0.00900583
-0.00898432
-0.00896002
-0.00893838
-0.00891531
-0.00889632
-0.0088761
-0.00885959
-0.00884206
-0.00882735
-0.00881004
-0.00879577
-0.00877886
-0.00876464
-0.00874781
-0.00873218
-0.00871323
-0.00869542
-0.00867545
-0.00865825
-0.00863914
-0.00862143
-0.00860152
-0.00858326
-0.00856253
-0.00854345
-0.00852292
-0.0085047
-0.00848374
-0.00846239
-0.00843653
-0.00840749
-0.00836895
-0.00832108
-0.00825657
-0.0081727
-0.00805955
-0.00791115
-0.00771309
-0.00745286
-0.00711289
-0.00667646
-0.0061232
-0.00543381
-0.00458155
-0.00352359
-0.0021447
-0.000180087
0.00299389
0.00836827
0.0172918
0.027797
0.0284044
-0.718266
-1.57121
-1.94173
-2.01577
-1.92015
-1.73124
-1.50025
-1.26033
-1.03294
-0.829463
-0.654889
-0.509628
-0.391658
-0.297685
-0.223935
-0.166853
-0.123154
-0.0899183
-0.0648477
-0.0460974
-0.032174
-0.021851
-0.014214
-0.00856538
-0.0044107
-0.00134986
0.000891152
0.00254625
0.00375681
0.00465503
0.00531132
0.00580266
0.00616437
0.00644144
0.00664651
0.00680918
0.00693402
0.00703958
0.00712372
0.00719894
0.0072598
0.00731677
0.00736457
0.00741133
0.00745061
0.00748897
0.00752032
0.00755193
0.00757778
0.00760486
0.00762831
0.00765248
0.00767195
0.00769228
0.00770897
0.00772664
0.00774132
0.00775849
0.0077726
0.007789
0.00780284
0.00781941
0.00783498
0.00785377
0.0078712
0.00789039
0.00790633
0.00792366
0.00793935
0.00795678
0.00797166
0.00798746
0.00799987
0.00801145
0.00801734
0.00802119
0.00801919
0.00801315
0.00799842
0.00797687
0.00794264
0.00789474
0.00782505
0.00772934
0.00759538
0.00741404
0.00716951
0.00684614
0.00642368
0.00588312
0.00520338
0.00436104
0.00331007
0.00193888
-1.62369e-05
-0.00317464
-0.00852578
-0.0174167
-0.0278792
-0.0284342
-2.15522
-4.70937
-5.81655
-6.03706
-5.75041
-5.18453
-4.49251
-3.77362
-3.09203
-2.48207
-1.9586
-1.52302
-1.16926
-0.887454
-0.666419
-0.495345
-0.364384
-0.264965
-0.19009
-0.134104
-0.0924948
-0.06168
-0.0389311
-0.0221705
-0.00986451
-0.00083587
0.00576781
0.0106077
0.0141417
0.0167333
0.0186234
0.0200127
0.0210278
0.02178
0.0223309
0.022745
0.023053
0.0232918
0.0234733
0.0236196
0.0237322
0.0238265
0.0239014
0.0239676
0.0240209
0.0240693
0.0241081
0.0241451
0.0241752
0.024205
0.0242302
0.0242553
0.0242753
0.0242957
0.0243126
0.0243305
0.0243452
0.0243623
0.0243763
0.0243923
0.0244058
0.0244222
0.0244378
0.0244564
0.0244734
0.0244918
0.0245065
0.0245222
0.0245358
0.0245507
0.0245622
0.0245731
0.0245788
0.0245813
0.0245749
0.0245617
0.0245364
0.0244986
0.0244403
0.0243589
0.0242429
0.024083
0.0238603
0.0235564
0.023141
0.0225815
0.0218339
0.0208491
0.0195702
0.0179389
0.015894
0.0133633
0.0102153
0.00611992
0.000301903
-0.00907059
-0.0249315
-0.0513084
-0.0824462
-0.0843986
-3.59437
-7.83597
-9.66647
-10.0281
-9.55034
-8.60967
-7.45975
-6.26532
-5.13297
-4.11972
-3.25022
-2.52677
-1.93928
-1.47131
-1.10434
-0.820332
-0.602938
-0.437977
-0.313788
-0.220939
-0.151924
-0.100826
-0.0631193
-0.0353611
-0.0149875
-5.25103e-05
0.0108691
0.0188612
0.0246948
0.0289626
0.0320741
0.0343524
0.0360146
0.0372372
0.0381308
0.038794
0.0392834
0.0396543
0.039932
0.0401486
0.0403125
0.0404437
0.0405454
0.0406306
0.0406978
0.0407561
0.0408022
0.0408445
0.0408787
0.0409111
0.0409379
0.0409639
0.0409844
0.0410049
0.0410219
0.0410401
0.0410551
0.0410721
0.041086
0.0411016
0.0411149
0.0411312
0.0411469
0.0411653
0.0411818
0.0411994
0.0412131
0.0412271
0.0412387
0.041251
0.0412592
0.0412651
0.0412641
0.0412576
0.041239
0.041209
0.0411605
0.0410913
0.04099
0.0408495
0.0406525
0.0403818
0.0400077
0.0394978
0.0388038
0.03787
0.0366241
0.0349839
0.0328558
0.0301428
0.0267447
0.0225439
0.0173339
0.0105906
0.00107715
-0.0141597
-0.0398905
-0.0827759
-0.133712
-0.13775
-5.03709
-10.9426
-13.4743
-13.9685
-13.2997
-11.9879
-10.3853
-8.72111
-7.14371
-5.73251
-4.52174
-3.51452
-2.6967
-2.04536
-1.53468
-1.13951
-0.837058
-0.607618
-0.434929
-0.305834
-0.209875
-0.138839
-0.0864316
-0.0478648
-0.0195627
0.00117719
0.0163425
0.027433
0.0355272
0.0414426
0.0457549
0.0489074
0.0512059
0.0528914
0.054122
0.0550305
0.0556985
0.0561993
0.0565717
0.0568573
0.0570716
0.0572391
0.0573669
0.0574708
0.0575514
0.0576194
0.0576727
0.0577201
0.0577582
0.0577932
0.0578215
0.0578484
0.0578693
0.0578899
0.0579071
0.0579256
0.0579409
0.0579578
0.0579717
0.0579871
0.0580002
0.0580165
0.0580323
0.0580505
0.0580665
0.0580833
0.058096
0.0581085
0.0581181
0.0581279
0.0581326
0.0581337
0.058126
0.0581105
0.0580799
0.0580334
0.0579622
0.057862
0.0577186
0.05752
0.0572434
0.0568639
0.0563412
0.0556288
0.054661
0.0533592
0.051623
0.0493375
0.0463724
0.0425926
0.0378608
0.0320199
0.0248043
0.0155358
0.00259695
-0.0179382
-0.0524979
-0.110289
-0.179562
-0.18678
-6.48465
-14.0196
-17.2219
-17.8374
-16.9781
-15.3007
-13.2528
-11.1268
-9.11232
-7.31065
-5.76527
-4.47998
-3.4366
-2.60577
-1.95449
-1.45061
-1.06502
-0.77258
-0.55252
-0.388035
-0.265776
-0.175281
-0.108528
-0.0594151
-0.023377
0.0030268
0.0223332
0.0364473
0.0467476
0.0542713
0.0597558
0.0637619
0.0666819
0.0688194
0.0703794
0.0715276
0.0723703
0.072998
0.0734628
0.0738156
0.0740791
0.0742821
0.0744353
0.0745574
0.074651
0.0747285
0.0747887
0.0748411
0.0748829
0.0749202
0.0749499
0.0749776
0.074999
0.0750198
0.0750371
0.075056
0.0750717
0.0750886
0.0751024
0.0751177
0.0751307
0.075147
0.0751629
0.0751811
0.0751965
0.0752124
0.0752243
0.0752354
0.075243
0.0752502
0.0752515
0.0752479
0.0752337
0.0752093
0.0751669
0.0751042
0.0750109
0.0748805
0.074696
0.0744408
0.0740867
0.0736011
0.0729335
0.0720237
0.0707887
0.0691276
0.0669124
0.0639953
0.0602102
0.0553844
0.0493458
0.0419055
0.0327598
0.0211289
0.00512398
-0.0199518
-0.061936
-0.132444
-0.218013
-0.22983
-7.93811
-17.0556
-20.8899
-21.6137
-20.5654
-18.5293
-16.0457
-13.4683
-11.027
-8.8445
-6.97304
-5.41701
-4.15415
-3.14879
-2.36089
-1.75143
-1.28514
-0.93159
-0.665599
-0.466812
-0.319071
-0.209726
-0.129079
-0.0697529
-0.0262235
0.00566523
0.0289822
0.0460249
0.0584624
0.0675443
0.0741646
0.0789981
0.0825207
0.0850967
0.0869762
0.088357
0.0893691
0.0901201
0.0906743
0.0910923
0.0914034
0.0916407
0.0918186
0.0919581
0.0920643
0.0921508
0.0922177
0.0922748
0.0923201
0.0923597
0.0923908
0.0924191
0.092441
0.092462
0.0924795
0.0924986
0.0925148
0.0925318
0.0925455
0.0925608
0.0925739
0.0925902
0.0926063
0.0926243
0.0926393
0.0926543
0.0926653
0.0926752
0.0926809
0.0926854
0.0926834
0.0926752
0.0926546
0.0926216
0.0925677
0.0924893
0.0923746
0.092215
0.0919907
0.0916809
0.0912517
0.0906634
0.0898556
0.0887549
0.0872611
0.0852519
0.0825719
0.0790412
0.0744576
0.0686121
0.0613007
0.052311
0.0413263
0.0275283
0.00888782
-0.0198133
-0.0675064
-0.148015
-0.247269
-0.265312
-9.3981
-20.0369
-24.4575
-25.2756
-24.0412
-21.6556
-18.7479
-15.7317
-12.8763
-10.3246
-8.13747
-6.31959
-4.84467
-3.67079
-2.75108
-2.03985
-1.49582
-1.08342
-0.773239
-0.541464
-0.369225
-0.241765
-0.147767
-0.078629
-0.0279028
0.00925546
0.0364258
0.056283
0.0707745
0.0813542
0.0890667
0.0946959
0.0987983
0.101796
0.103983
0.105588
0.106763
0.107633
0.108273
0.108754
0.109111
0.109381
0.109583
0.109739
0.109857
0.109952
0.110025
0.110087
0.110135
0.110177
0.11021
0.110238
0.110261
0.110282
0.1103
0.110319
0.110336
0.110353
0.110367
0.110382
0.110395
0.110412
0.110428
0.110446
0.11046
0.110475
0.110485
0.110493
0.110497
0.110499
0.110494
0.110481
0.110455
0.110413
0.110348
0.110255
0.110119
0.109932
0.109669
0.109307
0.108806
0.108119
0.107177
0.105893
0.10415
0.101806
0.098679
0.0945561
0.0892004
0.0823672
0.0738233
0.0633425
0.0506217
0.0348738
0.0140783
-0.0172167
-0.0686589
-0.156
-0.26578
-0.291741
-10.8646
-22.9468
-27.9021
-28.8012
-27.3853
-24.6613
-21.3435
-17.9035
-14.6487
-11.7417
-9.2512
-7.18193
-5.50362
-4.1683
-3.12241
-2.31382
-1.6955
-1.22692
-0.874558
-0.611321
-0.415729
-0.271007
-0.16429
-0.0858057
-0.0282245
0.0139534
0.0447949
0.0673338
0.083783
0.0957905
0.104544
0.110932
0.115588
0.118989
0.121469
0.123288
0.124619
0.125602
0.126325
0.126865
0.127265
0.127567
0.127791
0.127963
0.128093
0.128196
0.128275
0.128341
0.128392
0.128436
0.128469
0.128499
0.128522
0.128543
0.128561
0.128581
0.128598
0.128615
0.128629
0.128644
0.128658
0.128675
0.128691
0.128709
0.128723
0.128736
0.128746
0.128753
0.128756
0.128755
0.128747
0.128729
0.128697
0.128647
0.128572
0.128464
0.128309
0.128095
0.127796
0.127384
0.126814
0.126033
0.124963
0.123505
0.121526
0.118863
0.115308
0.110618
0.104521
0.0967376
0.0870076
0.0751007
0.0607546
0.0432858
0.0208408
-0.0119494
-0.0650158
-0.15567
-0.272301
-0.307763
-12.3363
-25.7646
-31.1992
-32.1679
-30.5779
-27.5286
-23.8168
-19.9703
-16.3334
-13.087
-10.3071
-7.99846
-6.1267
-4.63797
-3.47232
-2.57143
-1.88272
-1.36097
-0.968724
-0.675755
-0.458107
-0.297085
-0.178364
-0.0910585
-0.0270083
0.0199068
0.0542135
0.0792841
0.097582
0.110938
0.120676
0.127781
0.132959
0.136741
0.1395
0.141521
0.142999
0.144089
0.14489
0.145486
0.145928
0.146259
0.146505
0.146692
0.146832
0.146943
0.147028
0.147097
0.147151
0.147197
0.147231
0.147262
0.147285
0.147307
0.147325
0.147344
0.147362
0.147379
0.147393
0.147409
0.147423
0.14744
0.147456
0.147474
0.147488
0.147501
0.147509
0.147516
0.147516
0.147514
0.147502
0.147481
0.147442
0.147385
0.147299
0.147178
0.147005
0.146765
0.146432
0.145973
0.145339
0.14447
0.143279
0.141657
0.139455
0.13649
0.132531
0.127303
0.120499
0.111808
0.100944
0.0876812
0.071824
0.0528635
0.0292741
-0.00389871
-0.0563913
-0.146602
-0.26596
-0.31219
-13.8101
-28.4649
-34.3228
-35.3533
-33.5993
-30.24
-26.1527
-21.9193
-17.9196
-14.3518
-11.2984
-8.76385
-6.70978
-5.07666
-3.79842
-2.81086
-2.05614
-1.48455
-1.05497
-0.734182
-0.495911
-0.319659
-0.189723
-0.0941783
-0.024086
0.0272542
0.0647982
0.0922348
0.112261
0.126878
0.137535
0.145311
0.150979
0.155118
0.158137
0.160348
0.161964
0.163155
0.164028
0.164677
0.165157
0.165516
0.165781
0.165982
0.166133
0.166251
0.16634
0.166413
0.16647
0.166517
0.166553
0.166584
0.166607
0.166629
0.166648
0.166667
0.166685
0.166703
0.166717
0.166733
0.166748
0.166765
0.166781
0.166799
0.166813
0.166825
0.166832
0.166838
0.166837
0.166832
0.166817
0.166792
0.166749
0.166684
0.166589
0.166455
0.166264
0.166001
0.165636
0.165133
0.164439
0.163488
0.162185
0.16041
0.157999
0.154753
0.150414
0.144679
0.137209
0.127657
0.115717
0.101174
0.0839195
0.0636864