/*--------------------------------*- C++ -*----------------------------------*\
| =========                 |                                                 |
| \\      /  F ield         | OpenFOAM: The Open Source CFD Toolbox           |
|  \\    /   O peration     | Version:  2.3.0                                 |
|   \\  /    A nd           | Web:      www.OpenFOAM.org                      |
|    \\/     M anipulation  |                                                 |
\*---------------------------------------------------------------------------*/
FoamFile
{
    version     2.0;
    format      ascii;
    class       surfaceScalarField;
    location    "0.5";
    object      phi;
}
// * * * * * * * * * * * * * * * * * * * * * * * * * * * * * * * * * * * * * //

dimensions      [0 3 -1 0 0 0 0];

internalField   nonuniform List<scalar> 
7860
(
0.00283464
0.00216536
0.00262147
0.000213175
0.00260885
1.26157e-05
0.00260608
2.77651e-06
0.00260854
-2.46096e-06
0.00260703
1.50487e-06
0.00260572
1.31256e-06
0.00260396
1.76445e-06
0.00260257
1.38924e-06
0.00260135
1.21719e-06
0.0026004
9.56478e-07
0.00259963
7.71222e-07
0.00259903
5.95878e-07
0.00259857
4.59052e-07
0.00259823
3.43111e-07
0.00259798
2.51069e-07
0.0025978
1.80813e-07
0.00259767
1.29105e-07
0.00259758
8.81664e-08
0.00259752
5.98589e-08
0.00259748
4.20669e-08
0.00259745
2.90924e-08
0.00259743
1.77936e-08
0.00259742
1.15092e-08
0.00259741
8.32787e-09
0.00259741
5.80503e-09
0.00259741
3.46926e-09
0.0025974
2.4145e-09
0.0025974
1.60622e-09
0.0025974
1.19488e-09
0.0025974
2.88546e-10
0.0025974
-3.09028e-11
0.0025974
2.37536e-10
0.0025974
6.38734e-10
0.0025974
3.30687e-11
0.0025974
-4.01527e-10
0.0025974
-1.1163e-10
0.0025974
3.23275e-10
0.0025974
1.70959e-10
0.0025974
-8.59036e-11
0.0025974
-1.12696e-10
0.0025974
-5.65184e-11
0.0025974
-2.47318e-10
0.0025974
-1.44033e-11
0.0025974
1.73185e-10
0.0025974
1.34558e-11
0.0025974
-2.11392e-10
0.0025974
5.10517e-12
0.0025974
6.58376e-11
0.0025974
7.92154e-11
0.0025974
2.14188e-10
0.0025974
9.06271e-11
0.0025974
-1.91971e-10
0.0025974
-4.73317e-11
0.0025974
8.7059e-11
0.0025974
5.40118e-11
0.0025974
-2.8607e-10
0.0025974
-2.99933e-10
0.0025974
-4.48884e-11
0.0025974
1.22149e-10
0.0025974
5.21968e-12
0.0025974
-5.06721e-11
0.0025974
9.81512e-12
0.0025974
1.01127e-10
0.0025974
-1.37436e-10
0.0025974
-4.21556e-11
0.0025974
5.29109e-11
0.0025974
2.029e-11
0.0025974
-1.75564e-10
0.0025974
2.84506e-12
0.0025974
1.21062e-10
0.0025974
5.55675e-11
0.0025974
-1.28891e-10
0.0025974
5.99525e-12
0.0025974
1.22596e-10
0.0025974
1.32559e-10
0.0025974
-3.33858e-11
0.0025974
-8.5271e-11
0.0025974
1.32143e-11
0.0025974
2.31183e-10
0.0025974
1.17004e-10
0.0025974
1.69907e-10
0.0025974
3.0651e-10
0.0025974
7.41618e-10
0.0025974
1.22615e-09
0.0025974
1.88314e-09
0.00259739
2.95659e-09
0.00259739
4.92873e-09
0.00259738
7.78708e-09
0.00259737
1.1623e-08
0.00259735
1.69398e-08
0.00259733
2.38034e-08
0.0025973
3.17999e-08
0.00259726
3.65709e-08
0.00259722
3.36603e-08
0.0025972
2.43982e-08
0.00259709
1.06261e-07
0.00259639
7.04243e-07
0.00259377
2.61696e-06
-1.1774e-06
0.0045683
0.00259705
0.00437577
0.000405706
0.00434657
4.18188e-05
0.00434243
6.91361e-06
0.00434509
-5.11501e-06
0.00434323
3.35677e-06
0.0043413
3.23981e-06
0.00433882
4.24903e-06
0.00433678
3.42619e-06
0.004335
2.9985e-06
0.00433358
2.37812e-06
0.00433242
1.92228e-06
0.00433152
1.49394e-06
0.00433083
1.15447e-06
0.0043303
8.68027e-07
0.00432991
6.39765e-07
0.00432963
4.60346e-07
0.00432943
3.29138e-07
0.00432929
2.29305e-07
0.00432919
1.57289e-07
0.00432913
1.0765e-07
0.00432908
7.40285e-08
0.00432905
4.78615e-08
0.00432903
3.13321e-08
0.00432902
2.1409e-08
0.00432901
1.50938e-08
0.00432901
9.25098e-09
0.004329
6.06644e-09
0.004329
3.73374e-09
0.004329
2.93775e-09
0.004329
1.41813e-09
0.004329
6.86997e-10
0.004329
3.47679e-10
0.004329
7.88715e-10
0.004329
2.65756e-10
0.004329
-7.63295e-11
0.004329
-1.51119e-10
0.004329
3.9436e-10
0.004329
1.72963e-10
0.004329
-2.82155e-11
0.004329
-3.37689e-10
0.004329
-2.24684e-10
0.004329
-4.03119e-10
0.004329
-5.61439e-11
0.004329
1.4961e-10
0.004329
1.55291e-10
0.004329
-3.11127e-10
0.004329
-7.51724e-12
0.004329
2.33749e-10
0.004329
1.85671e-10
0.004329
2.31239e-10
0.004329
3.3276e-10
0.004329
-1.40795e-10
0.004329
-7.56524e-11
0.004329
-4.62123e-11
0.004329
1.29408e-10
0.004329
-2.17184e-10
0.004329
-3.30023e-10
0.004329
-1.89981e-10
0.004329
1.42167e-10
0.004329
6.62915e-11
0.004329
-9.86959e-12
0.004329
-1.20319e-10
0.004329
3.80327e-12
0.004329
-3.62885e-10
0.004329
-2.89296e-10
0.004329
-1.32876e-10
0.004329
4.87512e-11
0.004329
-2.19361e-10
0.004329
-6.35964e-11
0.004329
1.07491e-10
0.004329
1.82743e-10
0.004329
-8.15551e-11
0.004329
7.49223e-11
0.004329
1.71147e-10
0.004329
2.72076e-10
0.004329
5.75522e-11
0.004329
1.47526e-11
0.004329
1.45368e-11
0.004329
3.52235e-10
0.004329
3.52831e-10
0.004329
6.0363e-10
0.004329
9.77265e-10
0.004329
1.8254e-09
0.004329
3.10143e-09
0.00432899
5.03915e-09
0.00432899
7.96317e-09
0.00432898
1.26948e-08
0.00432897
1.97236e-08
0.00432895
2.96588e-08
0.00432892
4.3377e-08
0.00432889
6.09558e-08
0.00432884
8.22693e-08
0.00432877
9.82921e-08
0.0043287
1.06076e-07
0.00432861
1.16404e-07
0.00432829
4.29237e-07
0.00432694
2.04844e-06
0.00432234
7.21742e-06
7.94067e-06
0.0050727
0.00252435
0.00495582
0.000522582
0.00492277
7.48702e-05
0.00492019
9.49504e-06
0.0049217
-6.63071e-06
0.00492027
4.79293e-06
0.00491832
5.18846e-06
0.00491598
6.58594e-06
0.00491398
5.42781e-06
0.00491224
4.73643e-06
0.00491083
3.78781e-06
0.00490969
3.06712e-06
0.00490878
2.39568e-06
0.00490808
1.85537e-06
0.00490755
1.40136e-06
0.00490715
1.03787e-06
0.00490686
7.48962e-07
0.00490665
5.35904e-07
0.00490651
3.76294e-07
0.00490641
2.60129e-07
0.00490634
1.76986e-07
0.00490629
1.20699e-07
0.00490626
7.97412e-08
0.00490624
5.30833e-08
0.00490622
3.53276e-08
0.00490621
2.43702e-08
0.00490621
1.52654e-08
0.0049062
1.00625e-08
0.0049062
6.0696e-09
0.0049062
4.57342e-09
0.0049062
2.52761e-09
0.0049062
1.51837e-09
0.0049062
6.62083e-10
0.0049062
8.97253e-10
0.0049062
3.92531e-10
0.0049062
3.19068e-10
0.0049062
-4.55445e-11
0.0049062
4.53501e-10
0.0049062
6.8946e-12
0.0049062
-1.11891e-10
0.0049062
-5.7723e-10
0.0049062
-4.06089e-10
0.0049062
-5.53492e-10
0.0049062
-1.47613e-10
0.0049062
2.93573e-11
0.0049062
2.31016e-10
0.0049062
-3.99516e-10
0.0049062
-1.20705e-10
0.0049062
4.00055e-10
0.0049062
4.00807e-10
0.0049062
2.07638e-10
0.0049062
4.93634e-10
0.0049062
-1.52051e-11
0.0049062
1.24078e-11
0.0049062
-1.79023e-10
0.0049062
9.85681e-11
0.0049062
-1.07036e-10
0.0049062
-2.7228e-10
0.0049062
-3.50897e-10
0.0049062
7.27982e-11
0.0049062
1.1586e-10
0.0049062
4.11908e-11
0.0049062
-2.84915e-10
0.0049062
-2.11895e-10
0.0049062
-5.95289e-10
0.0049062
-5.28536e-10
0.0049062
-3.92921e-10
0.0049062
-2.32249e-11
0.0049062
-2.15584e-10
0.0049062
-6.38203e-11
0.0049062
1.05802e-10
0.0049062
2.7746e-10
0.0049062
-1.68292e-12
0.0049062
2.0147e-10
0.0049062
2.93299e-10
0.0049062
4.40085e-10
0.0049062
1.72028e-10
0.0049062
1.71305e-10
0.0049062
1.25914e-10
0.0049062
4.94857e-10
0.0049062
6.26444e-10
0.0049062
1.08187e-09
0.0049062
1.78696e-09
0.0049062
3.07828e-09
0.00490619
5.14184e-09
0.00490619
8.40348e-09
0.00490619
1.33196e-08
0.00490618
2.09079e-08
0.00490617
3.21429e-08
0.00490615
4.82834e-08
0.00490612
7.0691e-08
0.00490608
9.95926e-08
0.00490603
1.36137e-07
0.00490596
1.68249e-07
0.00490586
2.03706e-07
0.00490571
2.65718e-07
0.00490523
9.10734e-07
0.0049036
3.68037e-06
0.00489773
1.308e-05
2.27863e-05
0.00521047
0.00231388
0.00513988
0.000593168
0.0051125
0.00010225
0.0051111
1.08943e-05
0.00511196
-7.48583e-06
0.0051109
5.85222e-06
0.00510921
6.88098e-06
0.00510724
8.55392e-06
0.00510551
7.15967e-06
0.005104
6.24118e-06
0.00510277
5.02433e-06
0.00510176
4.07672e-06
0.00510096
3.19796e-06
0.00510032
2.4853e-06
0.00509984
1.88213e-06
0.00509948
1.39928e-06
0.00509922
1.01376e-06
0.00509903
7.26819e-07
0.00509889
5.1224e-07
0.00509879
3.55868e-07
0.00509873
2.42626e-07
0.00509868
1.64724e-07
0.00509865
1.09555e-07
0.00509863
7.37318e-08
0.00509862
4.87319e-08
0.00509861
3.29823e-08
0.00509861
2.09642e-08
0.0050986
1.39657e-08
0.0050986
8.38253e-09
0.0050986
6.05841e-09
0.0050986
3.56813e-09
0.0050986
2.25475e-09
0.0050986
1.03095e-09
0.0050986
1.07583e-09
0.0050986
4.65917e-10
0.0050986
5.42975e-10
0.0050986
5.59016e-11
0.0050986
5.41862e-10
0.0050986
-1.83187e-10
0.0050986
-3.53672e-10
0.0050986
-8.33558e-10
0.0050986
-5.2562e-10
0.0050986
-6.47711e-10
0.0050986
-2.58916e-10
0.0050986
-1.14988e-10
0.0050986
2.73128e-10
0.0050986
-4.15144e-10
0.0050986
-2.45483e-10
0.0050986
5.12793e-10
0.0050986
6.69452e-10
0.0050986
2.76402e-10
0.0050986
6.14243e-10
0.0050986
9.22325e-11
0.0050986
1.52839e-10
0.0050986
-2.24439e-10
0.0050986
1.47256e-11
0.0050986
-5.96918e-11
0.0050986
-2.22118e-10
0.0050986
-4.65466e-10
0.0050986
-2.74403e-11
0.0050986
1.39217e-10
0.0050986
9.18965e-11
0.0050986
-4.09614e-10
0.0050986
-4.40031e-10
0.0050986
-8.28631e-10
0.0050986
-7.23333e-10
0.0050986
-6.22857e-10
0.0050986
-1.58798e-10
0.0050986
-2.41674e-10
0.0050986
-6.04744e-11
0.0050986
1.22944e-10
0.0050986
3.42282e-10
0.0050986
5.83939e-11
0.0050986
2.92876e-10
0.0050986
4.24447e-10
0.0050986
6.17037e-10
0.0050986
2.96428e-10
0.0050986
2.73011e-10
0.0050986
2.4952e-10
0.0050986
6.70112e-10
0.0050986
9.20834e-10
0.0050986
1.54076e-09
0.0050986
2.55698e-09
0.0050986
4.31682e-09
0.0050986
7.12219e-09
0.00509859
1.15984e-08
0.00509859
1.83534e-08
0.00509858
2.85929e-08
0.00509857
4.36719e-08
0.00509855
6.54362e-08
0.00509852
9.58376e-08
0.00509849
1.35475e-07
0.00509844
1.87826e-07
0.00509837
2.39869e-07
0.00509825
3.16892e-07
0.00509806
4.54369e-07
0.00509749
1.48516e-06
0.00509583
5.34396e-06
0.00508954
1.93613e-05
3.78767e-05
0.00523372
0.00208016
0.00519442
0.000632466
0.00517354
0.000123135
0.00517302
1.14096e-05
0.00517348
-7.94513e-06
0.00517279
6.54357e-06
0.00517143
8.23813e-06
0.00516988
1.01036e-05
0.00516849
8.55601e-06
0.00516727
7.46018e-06
0.00516625
6.03892e-06
0.00516542
4.9124e-06
0.00516475
3.86845e-06
0.00516422
3.01132e-06
0.00516381
2.29012e-06
0.00516351
1.70805e-06
0.00516328
1.24222e-06
0.00516311
8.93154e-07
0.00516299
6.31217e-07
0.00516291
4.39992e-07
0.00516285
3.01115e-07
0.00516281
2.04181e-07
0.00516278
1.36128e-07
0.00516276
9.21362e-08
0.00516275
6.09908e-08
0.00516275
4.08395e-08
0.00516274
2.61313e-08
0.00516274
1.75297e-08
0.00516273
1.05382e-08
0.00516273
7.37292e-09
0.00516273
4.52368e-09
0.00516273
2.95306e-09
0.00516273
1.39545e-09
0.00516273
1.22959e-09
0.00516273
5.16683e-10
0.00516273
6.74758e-10
0.00516273
1.10959e-10
0.00516273
5.93486e-10
0.00516273
-3.76345e-10
0.00516273
-6.75551e-10
0.00516273
-1.13349e-09
0.00516273
-6.4246e-10
0.00516273
-6.63393e-10
0.00516273
-3.27879e-10
0.00516273
-2.96572e-10
0.00516273
2.54295e-10
0.00516273
-3.46859e-10
0.00516273
-3.00963e-10
0.00516273
5.86359e-10
0.00516273
9.209e-10
0.00516273
4.08983e-10
0.00516273
7.41179e-10
0.00516273
1.89383e-10
0.00516273
2.95303e-10
0.00516273
-1.99836e-10
0.00516273
-7.25851e-11
0.00516273
-5.89722e-11
0.00516273
-1.74821e-10
0.00516273
-5.15909e-10
0.00516273
-1.15825e-10
0.00516273
1.3541e-10
0.00516273
1.30534e-10
0.00516273
-4.90081e-10
0.00516273
-6.41177e-10
0.00516273
-1.06509e-09
0.00516273
-9.06156e-10
0.00516273
-8.22321e-10
0.00516273
-3.13591e-10
0.00516273
-2.95483e-10
0.00516273
-7.88048e-11
0.00516273
1.29388e-10
0.00516273
3.92175e-10
0.00516273
1.14524e-10
0.00516273
3.46645e-10
0.00516273
5.16586e-10
0.00516273
7.77887e-10
0.00516273
4.40061e-10
0.00516273
3.55395e-10
0.00516273
3.37933e-10
0.00516273
8.35793e-10
0.00516273
1.22077e-09
0.00516273
1.97714e-09
0.00516273
3.24211e-09
0.00516273
5.43049e-09
0.00516273
8.91503e-09
0.00516273
1.44707e-08
0.00516272
2.2829e-08
0.00516272
3.53397e-08
0.0051627
5.37156e-08
0.00516269
8.0315e-08
0.00516267
1.17711e-07
0.00516264
1.67047e-07
0.00516259
2.34937e-07
0.00516252
3.09455e-07
0.0051624
4.37218e-07
0.00516219
6.64924e-07
0.0051616
2.07499e-06
0.00516002
6.91943e-06
0.00515412
2.52595e-05
5.10199e-05
0.00522291
0.00185725
0.00520675
0.000648625
0.00519186
0.000138022
0.00519196
1.13151e-05
0.00519219
-8.1802e-06
0.00519183
6.90844e-06
0.00519082
9.24624e-06
0.00518969
1.12367e-05
0.00518864
9.60922e-06
0.00518771
8.3852e-06
0.00518693
6.8211e-06
0.00518628
5.56334e-06
0.00518575
4.39635e-06
0.00518533
3.43006e-06
0.005185
2.61764e-06
0.00518475
1.95836e-06
0.00518457
1.42921e-06
0.00518443
1.03088e-06
0.00518433
7.30619e-07
0.00518426
5.10172e-07
0.00518421
3.4995e-07
0.00518418
2.37912e-07
0.00518415
1.5888e-07
0.00518414
1.07802e-07
0.00518413
7.1653e-08
0.00518412
4.77966e-08
0.00518412
3.06464e-08
0.00518411
2.06031e-08
0.00518411
1.24694e-08
0.00518411
8.54955e-09
0.00518411
5.36479e-09
0.00518411
3.58947e-09
0.00518411
1.74285e-09
0.00518411
1.33727e-09
0.00518411
5.30378e-10
0.00518411
7.40212e-10
0.00518411
9.81204e-11
0.00518411
5.72913e-10
0.00518411
-5.64104e-10
0.00518411
-1.01202e-09
0.00518411
-1.4412e-09
0.00518411
-7.7702e-10
0.00518411
-6.4265e-10
0.00518411
-3.23597e-10
0.00518411
-4.8835e-10
0.00518411
1.66229e-10
0.00518411
-2.30949e-10
0.00518411
-2.73429e-10
0.00518411
6.44199e-10
0.00518411
1.13437e-09
0.00518411
5.62925e-10
0.00518411
8.75401e-10
0.00518411
2.93922e-10
0.00518411
4.34577e-10
0.00518411
-1.2483e-10
0.00518411
-1.37905e-10
0.00518411
-9.24836e-11
0.00518411
-1.37506e-10
0.00518411
-5.24881e-10
0.00518411
-1.90126e-10
0.00518411
1.0522e-10
0.00518411
1.47212e-10
0.00518411
-5.51067e-10
0.00518411
-8.14351e-10
0.00518411
-1.29294e-09
0.00518411
-1.0914e-09
0.00518411
-1.00937e-09
0.00518411
-4.73949e-10
0.00518411
-3.60568e-10
0.00518411
-1.17667e-10
0.00518411
1.06135e-10
0.00518411
4.22639e-10
0.00518411
1.78175e-10
0.00518411
3.88222e-10
0.00518411
5.69348e-10
0.00518411
9.08308e-10
0.00518411
5.95509e-10
0.00518411
4.53164e-10
0.00518411
4.06684e-10
0.00518411
9.73625e-10
0.00518411
1.50032e-09
0.00518411
2.3809e-09
0.00518411
3.83956e-09
0.00518411
6.37593e-09
0.00518411
1.04436e-08
0.00518411
1.69141e-08
0.0051841
2.66303e-08
0.0051841
4.09668e-08
0.00518409
6.19987e-08
0.00518408
9.25489e-08
0.00518406
1.35818e-07
0.00518403
1.93598e-07
0.00518399
2.76147e-07
0.00518393
3.73409e-07
0.00518381
5.56551e-07
0.00518359
8.78455e-07
0.00518302
2.64996e-06
0.00518163
8.30516e-06
0.00517658
3.03154e-05
6.16624e-05
0.00520416
0.00165309
0.00520564
0.000647147
0.00519614
0.00014752
0.00519664
1.08141e-05
0.00519674
-8.28226e-06
0.00519666
6.9945e-06
0.00519599
9.91727e-06
0.00519525
1.19781e-05
0.00519453
1.03309e-05
0.00519389
9.02531e-06
0.00519333
7.37405e-06
0.00519287
6.03013e-06
0.00519248
4.78073e-06
0.00519217
3.73914e-06
0.00519193
2.86233e-06
0.00519174
2.14757e-06
0.0051916
1.57207e-06
0.00519149
1.13741e-06
0.00519141
8.08406e-07
0.00519136
5.65477e-07
0.00519132
3.88688e-07
0.00519129
2.64979e-07
0.00519127
1.77373e-07
0.00519126
1.20448e-07
0.00519125
8.03518e-08
0.00519125
5.36345e-08
0.00519124
3.43537e-08
0.00519124
2.30707e-08
0.00519124
1.41138e-08
0.00519124
9.59754e-09
0.00519124
6.07286e-09
0.00519124
4.10707e-09
0.00519124
2.04793e-09
0.00519124
1.40593e-09
0.00519124
4.95025e-10
0.00519124
7.44795e-10
0.00519124
1.76384e-11
0.00519124
4.61203e-10
0.00519124
-7.48029e-10
0.00519124
-1.31881e-09
0.00519124
-1.71706e-09
0.00519124
-9.24701e-10
0.00519124
-6.35367e-10
0.00519124
-2.6065e-10
0.00519124
-6.52443e-10
0.00519124
1.75088e-11
0.00519124
-9.35833e-11
0.00519124
-1.55726e-10
0.00519124
7.0377e-10
0.00519124
1.30447e-09
0.00519124
7.16318e-10
0.00519124
1.00724e-09
0.00519124
4.1461e-10
0.00519124
5.74457e-10
0.00519124
-1.45016e-11
0.00519124
-1.66973e-10
0.00519124
-1.42811e-10
0.00519124
-1.13695e-10
0.00519124
-5.05249e-10
0.00519124
-2.4926e-10
0.00519124
5.48814e-11
0.00519124
1.40934e-10
0.00519124
-6.02899e-10
0.00519124
-9.68869e-10
0.00519124
-1.51166e-09
0.00519124
-1.28127e-09
0.00519124
-1.18619e-09
0.00519124
-6.28703e-10
0.00519124
-4.23088e-10
0.00519124
-1.65265e-10
0.00519124
4.8503e-11
0.00519124
4.24088e-10
0.00519124
2.48899e-10
0.00519124
4.3825e-10
0.00519124
5.9559e-10
0.00519124
1.00418e-09
0.00519124
7.51268e-10
0.00519124
5.7474e-10
0.00519124
4.72977e-10
0.00519124
1.07901e-09
0.00519124
1.74086e-09
0.00519124
2.73094e-09
0.00519124
4.34195e-09
0.00519124
7.13466e-09
0.00519124
1.16621e-08
0.00519123
1.88604e-08
0.00519123
2.95593e-08
0.00519123
4.5395e-08
0.00519122
6.83954e-08
0.00519121
1.01968e-07
0.0051912
1.49911e-07
0.00519117
2.14712e-07
0.00519114
3.10379e-07
0.00519108
4.2982e-07
0.00519097
6.67987e-07
0.00519077
1.08112e-06
0.00519025
3.17096e-06
0.00518911
9.44291e-06
0.00518511
3.43192e-05
6.97064e-05
0.0051855
0.00146759
0.00520066
0.000631979
0.00519593
0.000152252
0.00519669
1.00592e-05
0.00519669
-8.28872e-06
0.00519684
6.85207e-06
0.00519648
1.02743e-05
0.0051961
1.23599e-05
0.00519569
1.07405e-05
0.00519532
9.39594e-06
0.00519499
7.707e-06
0.0051947
6.31826e-06
0.00519446
5.02434e-06
0.00519426
3.93892e-06
0.00519409
3.02388e-06
0.00519397
2.27479e-06
0.00519387
1.66964e-06
0.0051938
1.2114e-06
0.00519374
8.63425e-07
0.0051937
6.05115e-07
0.00519367
4.16684e-07
0.00519365
2.84786e-07
0.00519364
1.91203e-07
0.00519363
1.29876e-07
0.00519362
8.68396e-08
0.00519362
5.8054e-08
0.00519362
3.71275e-08
0.00519361
2.49391e-08
0.00519361
1.54069e-08
0.00519361
1.04816e-08
0.00519361
6.63629e-09
0.00519361
4.45897e-09
0.00519361
2.27817e-09
0.00519361
1.45415e-09
0.00519361
4.10841e-10
0.00519361
6.72709e-10
0.00519361
-1.21699e-10
0.00519361
2.68813e-10
0.00519361
-9.32537e-10
0.00519361
-1.57914e-09
0.00519361
-1.941e-09
0.00519361
-1.07331e-09
0.00519361
-6.70188e-10
0.00519361
-1.76055e-10
0.00519361
-7.53822e-10
0.00519361
-1.65717e-10
0.00519361
3.36062e-11
0.00519361
4.06547e-11
0.00519361
7.77846e-10
0.00519361
1.43058e-09
0.00519361
8.61177e-10
0.00519361
1.12491e-09
0.00519361
5.44406e-10
0.00519361
7.20227e-10
0.00519361
1.23535e-10
0.00519361
-1.59895e-10
0.00519361
-1.96601e-10
0.00519361
-1.03216e-10
0.00519361
-4.59352e-10
0.00519361
-2.87298e-10
0.00519361
-7.47941e-12
0.00519361
1.08889e-10
0.00519361
-6.53969e-10
0.00519361
-1.10642e-09
0.00519361
-1.71784e-09
0.00519361
-1.46974e-09
0.00519361
-1.34923e-09
0.00519361
-7.70969e-10
0.00519361
-4.76595e-10
0.00519361
-2.07539e-10
0.00519361
-3.37917e-11
0.00519361
3.88783e-10
0.00519361
3.16868e-10
0.00519361
5.10455e-10
0.00519361
6.14853e-10
0.00519361
1.06395e-09
0.00519361
8.9299e-10
0.00519361
7.13228e-10
0.00519361
5.49313e-10
0.00519361
1.15543e-09
0.00519361
1.93085e-09
0.00519361
3.00756e-09
0.00519361
4.73486e-09
0.00519361
7.69828e-09
0.00519361
1.25412e-08
0.00519361
2.02614e-08
0.00519361
3.16051e-08
0.00519361
4.84499e-08
0.0051936
7.2865e-08
0.00519359
1.08497e-07
0.00519358
1.59844e-07
0.00519357
2.30089e-07
0.00519354
3.36815e-07
0.0051935
4.76378e-07
0.0051934
7.65134e-07
0.00519322
1.25972e-06
0.00519278
3.60674e-06
0.00519193
1.03001e-05
0.00518906
3.71838e-05
7.51792e-05
0.00516898
0.00129861
0.00519497
0.000605992
0.00519443
0.000152793
0.00519532
9.16503e-06
0.00519524
-8.20628e-06
0.00519556
6.53087e-06
0.00519549
1.03448e-05
0.00519543
1.24151e-05
0.00519531
1.08606e-05
0.0051952
9.51481e-06
0.00519507
7.83196e-06
0.00519495
6.43573e-06
0.00519485
5.132e-06
0.00519475
4.03217e-06
0.00519467
3.10355e-06
0.00519461
2.34038e-06
0.00519456
1.72182e-06
0.00519452
1.2524e-06
0.00519448
8.95141e-07
0.00519446
6.28585e-07
0.00519444
4.33469e-07
0.00519443
2.96912e-07
0.00519442
2.00014e-07
0.00519442
1.35909e-07
0.00519441
9.09384e-08
0.00519441
6.09177e-08
0.00519441
3.90069e-08
0.00519441
2.61228e-08
0.00519441
1.63115e-08
0.0051944
1.11421e-08
0.0051944
7.04764e-09
0.0051944
4.63217e-09
0.0051944
2.39847e-09
0.0051944
1.48605e-09
0.0051944
2.93915e-10
0.0051944
5.11029e-10
0.0051944
-3.1842e-10
0.00519441
1.70344e-11
0.00519441
-1.1214e-09
0.00519441
-1.79489e-09
0.00519441
-2.11235e-09
0.00519441
-1.21507e-09
0.00519441
-7.52239e-10
0.00519441
-1.08802e-10
0.00519441
-7.79258e-10
0.00519441
-3.45952e-10
0.00519441
1.25293e-10
0.00519441
2.87956e-10
0.00519441
8.71485e-10
0.00519441
1.51157e-09
0.00519441
9.93457e-10
0.00519441
1.22701e-09
0.00519441
6.69548e-10
0.00519441
8.69443e-10
0.00519441
2.86162e-10
0.00519441
-1.19596e-10
0.00519441
-2.43929e-10
0.00519441
-1.0357e-10
0.00519441
-3.89037e-10
0.00519441
-2.97527e-10
0.00519441
-7.58404e-11
0.00519441
4.75355e-11
0.00519441
-7.149e-10
0.00519441
-1.22315e-09
0.00519441
-1.90095e-09
0.00519441
-1.64733e-09
0.00519441
-1.49407e-09
0.00519441
-8.9799e-10
0.00519441
-5.19904e-10
0.00519441
-2.3527e-10
0.00519441
-1.25371e-10
0.00519441
3.14984e-10
0.00519441
3.67598e-10
0.00519441
6.0756e-10
0.00519441
6.45962e-10
0.00519441
1.08985e-09
0.00519441
1.00872e-09
0.00519441
8.57371e-10
0.00519441
6.39838e-10
0.00519441
1.20817e-09
0.00519441
2.06423e-09
0.00519441
3.1994e-09
0.00519441
4.99959e-09
0.00519441
8.05637e-09
0.00519441
1.30769e-08
0.0051944
2.10355e-08
0.0051944
3.27691e-08
0.0051944
5.02008e-08
0.0051944
7.5362e-08
0.0051944
1.12103e-07
0.00519439
1.6553e-07
0.00519438
2.39498e-07
0.00519436
3.54715e-07
0.00519433
5.1097e-07
0.00519425
8.42399e-07
0.00519411
1.40332e-06
0.00519378
3.9353e-06
0.00519322
1.08579e-05
0.00519152
3.88866e-05
7.81759e-05
0.00515488
0.00114373
0.00518953
0.000571344
0.00519267
0.000149653
0.00519362
8.21128e-06
0.00519344
-8.02696e-06
0.0051939
6.07699e-06
0.00519408
1.01576e-05
0.00519432
1.21763e-05
0.00519447
1.07151e-05
0.00519458
9.40084e-06
0.00519465
7.76254e-06
0.0051947
6.39234e-06
0.00519472
5.11021e-06
0.00519473
4.02327e-06
0.00519473
3.10399e-06
0.00519472
2.34582e-06
0.00519471
1.72941e-06
0.00519471
1.26071e-06
0.0051947
9.03547e-07
0.00519469
6.35771e-07
0.00519469
4.38876e-07
0.00519468
3.01154e-07
0.00519468
2.03564e-07
0.00519468
1.38417e-07
0.00519467
9.25885e-08
0.00519467
6.21289e-08
0.00519467
3.99004e-08
0.00519467
2.67139e-08
0.00519467
1.68102e-08
0.00519467
1.1526e-08
0.00519467
7.26477e-09
0.00519467
4.644e-09
0.00519467
2.39044e-09
0.00519467
1.48624e-09
0.00519467
1.61587e-10
0.00519467
2.62034e-10
0.00519467
-5.80357e-10
0.00519467
-2.75587e-10
0.00519467
-1.31356e-09
0.00519467
-1.97158e-09
0.00519467
-2.23942e-09
0.00519467
-1.34842e-09
0.00519467
-8.76122e-10
0.00519467
-8.66589e-11
0.00519467
-7.39614e-10
0.00519467
-4.85244e-10
0.00519467
1.7012e-10
0.00519467
5.4673e-10
0.00519467
9.80497e-10
0.00519467
1.55178e-09
0.00519467
1.10954e-09
0.00519467
1.32353e-09
0.00519467
7.80927e-10
0.00519467
1.0105e-09
0.00519467
4.68063e-10
0.00519467
-4.7317e-11
0.00519467
-2.80168e-10
0.00519467
-1.11688e-10
0.00519467
-3.02401e-10
0.00519467
-2.75926e-10
0.00519467
-1.43819e-10
0.00519467
-4.3369e-11
0.00519467
-7.94609e-10
0.00519467
-1.31613e-09
0.00519467
-2.04592e-09
0.00519467
-1.8029e-09
0.00519467
-1.61681e-09
0.00519467
-1.01042e-09
0.00519467
-5.56543e-10
0.00519467
-2.45114e-10
0.00519467
-2.08709e-10
0.00519467
2.10293e-10
0.00519467
3.87449e-10
0.00519467
7.21449e-10
0.00519467
7.03724e-10
0.00519467
1.09336e-09
0.00519467
1.09158e-09
0.00519467
9.975e-10
0.00519467
7.42554e-10
0.00519467
1.24256e-09
0.00519467
2.13853e-09
0.00519467
3.30419e-09
0.00519467
5.10761e-09
0.00519467
8.1878e-09
0.00519467
1.32651e-08
0.00519467
2.12528e-08
0.00519467
3.30494e-08
0.00519467
5.06276e-08
0.00519467
7.59001e-08
0.00519467
1.12813e-07
0.00519467
1.66966e-07
0.00519466
2.42807e-07
0.00519466
3.63505e-07
0.00519463
5.31937e-07
0.00519458
8.95351e-07
0.00519448
1.5037e-06
0.00519427
4.14202e-06
0.00519402
1.11079e-05
0.00519346
3.9446e-05
7.88373e-05
0.00514299
0.00100074
0.00518463
0.000529711
0.00519099
0.000143286
0.00519196
7.24922e-06
0.00519167
-7.73806e-06
0.00519221
5.53102e-06
0.00519263
9.74191e-06
0.00519313
1.1675e-05
0.00519352
1.03281e-05
0.00519384
9.07384e-06
0.00519409
7.5136e-06
0.00519428
6.19931e-06
0.00519443
4.96694e-06
0.00519453
3.91787e-06
0.00519461
3.0291e-06
0.00519466
2.29358e-06
0.0051947
1.69399e-06
0.00519472
1.23734e-06
0.00519474
8.89116e-07
0.00519475
6.26924e-07
0.00519475
4.33029e-07
0.00519475
2.97527e-07
0.00519476
2.01766e-07
0.00519476
1.3735e-07
0.00519476
9.18063e-08
0.00519476
6.16868e-08
0.00519476
3.97585e-08
0.00519476
2.66927e-08
0.00519476
1.68952e-08
0.00519476
1.1603e-08
0.00519476
7.29216e-09
0.00519476
4.5248e-09
0.00519476
2.24922e-09
0.00519476
1.42739e-09
0.00519476
2.75447e-11
0.00519476
-4.87212e-11
0.00519476
-9.12681e-10
0.00519476
-5.97653e-10
0.00519476
-1.5081e-09
0.00519476
-2.10876e-09
0.00519476
-2.33312e-09
0.00519476
-1.4721e-09
0.00519476
-1.03082e-09
0.00519476
-1.2557e-10
0.00519476
-6.59074e-10
0.00519476
-5.56151e-10
0.00519476
1.84263e-10
0.00519476
7.81294e-10
0.00519476
1.09911e-09
0.00519476
1.55778e-09
0.00519476
1.20296e-09
0.00519476
1.41796e-09
0.00519476
8.73597e-10
0.00519476
1.12682e-09
0.00519476
6.63584e-10
0.00519476
6.22882e-11
0.00519476
-2.93956e-10
0.00519476
-1.22231e-10
0.00519476
-2.04711e-10
0.00519476
-2.25497e-10
0.00519476
-1.99528e-10
0.00519476
-1.56348e-10
0.00519476
-9.03898e-10
0.00519476
-1.38505e-09
0.00519476
-2.14024e-09
0.00519476
-1.9243e-09
0.00519476
-1.71526e-09
0.00519476
-1.10612e-09
0.00519476
-5.9632e-10
0.00519476
-2.4093e-10
0.00519476
-2.69583e-10
0.00519476
8.99837e-11
0.00519476
3.68983e-10
0.00519476
8.34008e-10
0.00519476
7.93323e-10
0.00519476
1.08522e-09
0.00519476
1.13411e-09
0.00519476
1.12154e-09
0.00519476
8.49361e-10
0.00519476
1.2551e-09
0.00519476
2.15315e-09
0.00519476
3.32229e-09
0.00519476
5.07345e-09
0.00519476
8.0905e-09
0.00519476
1.31034e-08
0.00519476
2.09275e-08
0.00519476
3.24619e-08
0.00519476
4.97486e-08
0.00519476
7.45316e-08
0.00519477
1.10715e-07
0.00519477
1.64234e-07
0.00519477
2.40002e-07
0.00519477
3.62831e-07
0.00519477
5.38126e-07
0.00519474
9.20845e-07
0.00519469
1.55525e-06
0.00519461
4.21855e-06
0.00519467
1.10499e-05
0.00519521
3.89094e-05
7.73321e-05
0.00513303
0.00086771
0.00518031
0.000482428
0.0051895
0.0001341
0.00519044
6.30873e-06
0.00519003
-7.32783e-06
0.00519063
4.9271e-06
0.00519125
9.12626e-06
0.00519198
1.09416e-05
0.00519258
9.72429e-06
0.0051931
8.55429e-06
0.00519351
7.10096e-06
0.00519385
5.86902e-06
0.0051941
4.71142e-06
0.0051943
3.72271e-06
0.00519444
2.88376e-06
0.00519455
2.18704e-06
0.00519463
1.61781e-06
0.00519468
1.18383e-06
0.00519472
8.52772e-07
0.00519474
6.02603e-07
0.00519476
4.16311e-07
0.00519477
2.86248e-07
0.00519478
1.9468e-07
0.00519478
1.32756e-07
0.00519478
8.86652e-08
0.00519479
5.96606e-08
0.00519479
3.8578e-08
0.00519479
2.60292e-08
0.00519479
1.65589e-08
0.00519479
1.13676e-08
0.00519479
7.11422e-09
0.00519479
4.29859e-09
0.00519479
1.99102e-09
0.00519479
1.28503e-09
0.00519479
-1.16351e-10
0.00519479
-3.90697e-10
0.00519479
-1.30708e-09
0.00519479
-9.49363e-10
0.00519479
-1.69751e-09
0.00519479
-2.20975e-09
0.00519479
-2.40023e-09
0.00519479
-1.58536e-09
0.00519479
-1.21304e-09
0.00519479
-2.25034e-10
0.00519479
-5.69407e-10
0.00519479
-5.45279e-10
0.00519479
1.82335e-10
0.00519479
9.66196e-10
0.00519479
1.20739e-09
0.00519479
1.53847e-09
0.00519479
1.26986e-09
0.00519479
1.5209e-09
0.00519479
9.55317e-10
0.00519479
1.20799e-09
0.00519479
8.5254e-10
0.00519479
2.15084e-10
0.00519479
-2.8223e-10
0.00519479
-1.36932e-10
0.00519479
-1.11939e-10
0.00519479
-1.55766e-10
0.00519479
-2.40639e-10
0.00519479
-2.80685e-10
0.00519479
-1.03952e-09
0.00519479
-1.44387e-09
0.00519479
-2.18086e-09
0.00519479
-2.00284e-09
0.00519479
-1.78615e-09
0.00519479
-1.18844e-09
0.00519479
-6.43157e-10
0.00519479
-2.3175e-10
0.00519479
-3.01839e-10
0.00519479
-2.7546e-11
0.00519479
3.12908e-10
0.00519479
9.286e-10
0.00519479
9.0992e-10
0.00519479
1.08613e-09
0.00519479
1.14187e-09
0.00519479
1.22321e-09
0.00519479
9.61096e-10
0.00519479
1.25274e-09
0.00519479
2.1097e-09
0.00519479
3.25849e-09
0.00519479
4.90565e-09
0.00519479
7.76625e-09
0.00519479
1.25917e-08
0.00519479
2.00774e-08
0.0051948
3.1046e-08
0.0051948
4.76192e-08
0.0051948
7.13426e-08
0.00519481
1.05939e-07
0.00519481
1.57487e-07
0.00519482
2.31194e-07
0.00519483
3.52589e-07
0.00519484
5.28918e-07
0.00519484
9.17037e-07
0.00519484
1.5549e-06
0.0051949
4.16219e-06
0.00519526
1.06922e-05
0.00519682
3.73455e-05
7.38467e-05
0.00512472
0.000742987
0.00517657
0.000430578
0.0051882
0.00012247
0.00518911
5.4048e-06
0.00518857
-6.78871e-06
0.0051892
4.2926e-06
0.00518999
8.33831e-06
0.00519092
1.00053e-05
0.00519172
8.92833e-06
0.00519241
7.86315e-06
0.00519297
6.54126e-06
0.00519342
5.41477e-06
0.00519378
4.3539e-06
0.00519406
3.44543e-06
0.00519427
2.67369e-06
0.00519443
2.03037e-06
0.00519454
1.50375e-06
0.00519462
1.10225e-06
0.00519468
7.95862e-07
0.00519472
5.63645e-07
0.00519475
3.89331e-07
0.00519477
2.67721e-07
0.00519478
1.82514e-07
0.00519479
1.24769e-07
0.00519479
8.32936e-08
0.00519479
5.61591e-08
0.0051948
3.64014e-08
0.0051948
2.47132e-08
0.0051948
1.57984e-08
0.0051948
1.08307e-08
0.0051948
6.72988e-09
0.0051948
3.97664e-09
0.0051948
1.63298e-09
0.0051948
1.04214e-09
0.0051948
-2.8574e-10
0.0051948
-7.29291e-10
0.0051948
-1.73441e-09
0.0051948
-1.32795e-09
0.0051948
-1.88185e-09
0.0051948
-2.27462e-09
0.0051948
-2.44733e-09
0.0051948
-1.68676e-09
0.0051948
-1.4117e-09
0.0051948
-3.75643e-10
0.0051948
-4.95037e-10
0.0051948
-4.57202e-10
0.0051948
1.93621e-10
0.0051948
1.09285e-09
0.0051948
1.29188e-09
0.0051948
1.50544e-09
0.0051948
1.30779e-09
0.0051948
1.62778e-09
0.0051948
1.03479e-09
0.0051948
1.2473e-09
0.0051948
1.01464e-09
0.0051948
4.10284e-10
0.0051948
-2.33622e-10
0.0051948
-1.52613e-10
0.0051948
-3.32382e-11
0.0051948
-7.74384e-11
0.0051948
-2.66734e-10
0.0051948
-4.05964e-10
0.0051948
-1.19596e-09
0.0051948
-1.50658e-09
0.0051948
-2.17475e-09
0.0051948
-2.03281e-09
0.0051948
-1.82534e-09
0.0051948
-1.25584e-09
0.0051948
-7.01846e-10
0.0051948
-2.30814e-10
0.0051948
-3.06711e-10
0.0051948
-1.23804e-10
0.0051948
2.30653e-10
0.0051948
9.90447e-10
0.0051948
1.03915e-09
0.0051948
1.10783e-09
0.0051948
1.12287e-09
0.0051948
1.29515e-09
0.0051948
1.07253e-09
0.0051948
1.23726e-09
0.0051948
2.01217e-09
0.0051948
3.11332e-09
0.0051948