/*--------------------------------*- C++ -*----------------------------------*\
| =========                 |                                                 |
| \\      /  F ield         | OpenFOAM: The Open Source CFD Toolbox           |
|  \\    /   O peration     | Version:  2.3.0                                 |
|   \\  /    A nd           | Web:      www.OpenFOAM.org                      |
|    \\/     M anipulation  |                                                 |
\*---------------------------------------------------------------------------*/
FoamFile
{
    version     2.0;
    format      ascii;
    class       volVectorField;
    location    "0.5";
    object      U;
}
// * * * * * * * * * * * * * * * * * * * * * * * * * * * * * * * * * * * * * //

dimensions      [0 1 -1 0 0 0 0];

internalField   nonuniform List<vector> 
4000
(
(0.53758 0.0563867 0)
(0.552258 0.00359617 0)
(0.517063 -0.00175875 0)
(0.522849 -0.00199555 0)
(0.520976 -0.00212517 0)
(0.521863 -0.00203289 0)
(0.52121 -0.00204079 0)
(0.521019 -0.00203147 0)
(0.520639 -0.0020414 0)
(0.520401 -0.00204605 0)
(0.520172 -0.00205272 0)
(0.520003 -0.00205729 0)
(0.519864 -0.00206148 0)
(0.51976 -0.00206474 0)
(0.519679 -0.00206747 0)
(0.51962 -0.00206957 0)
(0.519577 -0.00207111 0)
(0.519546 -0.00207225 0)
(0.519525 -0.00207317 0)
(0.51951 -0.0020738 0)
(0.5195 -0.0020742 0)
(0.519493 -0.00207447 0)
(0.519488 -0.00207471 0)
(0.519485 -0.00207483 0)
(0.519483 -0.00207491 0)
(0.519482 -0.00207496 0)
(0.519481 -0.00207501 0)
(0.519481 -0.00207503 0)
(0.51948 -0.00207505 0)
(0.51948 -0.00207506 0)
(0.51948 -0.00207508 0)
(0.51948 -0.00207508 0)
(0.51948 -0.00207508 0)
(0.51948 -0.00207507 0)
(0.51948 -0.00207509 0)
(0.51948 -0.00207509 0)
(0.51948 -0.00207509 0)
(0.51948 -0.00207508 0)
(0.51948 -0.00207508 0)
(0.51948 -0.00207509 0)
(0.51948 -0.00207509 0)
(0.51948 -0.00207509 0)
(0.51948 -0.00207509 0)
(0.51948 -0.00207509 0)
(0.51948 -0.00207508 0)
(0.51948 -0.00207508 0)
(0.51948 -0.00207509 0)
(0.51948 -0.00207509 0)
(0.51948 -0.00207509 0)
(0.51948 -0.00207508 0)
(0.51948 -0.00207508 0)
(0.51948 -0.00207508 0)
(0.51948 -0.00207509 0)
(0.51948 -0.00207509 0)
(0.51948 -0.00207509 0)
(0.51948 -0.00207508 0)
(0.51948 -0.00207509 0)
(0.51948 -0.00207509 0)
(0.51948 -0.00207509 0)
(0.51948 -0.00207508 0)
(0.51948 -0.00207509 0)
(0.51948 -0.00207509 0)
(0.51948 -0.00207509 0)
(0.51948 -0.00207508 0)
(0.51948 -0.00207509 0)
(0.51948 -0.00207509 0)
(0.51948 -0.00207509 0)
(0.51948 -0.00207509 0)
(0.51948 -0.00207509 0)
(0.51948 -0.00207509 0)
(0.51948 -0.00207508 0)
(0.51948 -0.00207509 0)
(0.51948 -0.00207509 0)
(0.51948 -0.00207508 0)
(0.51948 -0.00207508 0)
(0.51948 -0.00207508 0)
(0.51948 -0.00207509 0)
(0.51948 -0.00207509 0)
(0.51948 -0.00207509 0)
(0.51948 -0.00207508 0)
(0.51948 -0.00207508 0)
(0.51948 -0.00207508 0)
(0.51948 -0.00207508 0)
(0.51948 -0.00207507 0)
(0.51948 -0.00207506 0)
(0.519479 -0.00207504 0)
(0.519479 -0.00207501 0)
(0.519478 -0.00207497 0)
(0.519477 -0.0020749 0)
(0.519475 -0.00207481 0)
(0.519472 -0.00207469 0)
(0.519468 -0.00207454 0)
(0.519462 -0.00207438 0)
(0.519454 -0.00207434 0)
(0.519448 -0.0020746 0)
(0.51944 -0.0020752 0)
(0.519445 -0.00207423 0)
(0.519362 -0.00206095 0)
(0.519228 -0.00202081 0)
(0.518635 -0.00215125 0)
(0.865011 0.128421 0)
(0.911693 0.0160121 0)
(0.861958 0.00100855 0)
(0.871298 -4.84954e-05 0)
(0.867828 -0.000485335 0)
(0.869353 -0.000171521 0)
(0.86833 -0.000184485 0)
(0.868103 -0.000148441 0)
(0.867536 -0.000180247 0)
(0.867193 -0.000195923 0)
(0.866852 -0.000218861 0)
(0.866601 -0.000235633 0)
(0.866392 -0.000251695 0)
(0.866234 -0.0002643 0)
(0.866111 -0.000274248 0)
(0.86602 -0.000282135 0)
(0.865953 -0.000288258 0)
(0.865905 -0.000292723 0)
(0.865871 -0.000296168 0)
(0.865848 -0.000298604 0)
(0.865832 -0.000300224 0)
(0.865821 -0.000301341 0)
(0.865813 -0.000302258 0)
(0.865809 -0.00030281 0)
(0.865805 -0.000303123 0)
(0.865803 -0.000303334 0)
(0.865802 -0.000303536 0)
(0.865801 -0.000303638 0)
(0.865801 -0.000303714 0)
(0.8658 -0.000303741 0)
(0.8658 -0.000303804 0)
(0.8658 -0.000303828 0)
(0.8658 -0.000303828 0)
(0.8658 -0.000303803 0)
(0.8658 -0.000303833 0)
(0.8658 -0.000303854 0)
(0.8658 -0.000303848 0)
(0.8658 -0.000303822 0)
(0.8658 -0.000303832 0)
(0.8658 -0.000303844 0)
(0.8658 -0.000303853 0)
(0.8658 -0.000303848 0)
(0.8658 -0.000303859 0)
(0.8658 -0.000303844 0)
(0.8658 -0.000303833 0)
(0.8658 -0.000303837 0)
(0.8658 -0.000303855 0)
(0.8658 -0.000303841 0)
(0.8658 -0.000303835 0)
(0.8658 -0.000303836 0)
(0.8658 -0.00030383 0)
(0.8658 -0.000303831 0)
(0.8658 -0.000303851 0)
(0.865799 -0.000303845 0)
(0.865799 -0.00030384 0)
(0.8658 -0.000303836 0)
(0.8658 -0.000303855 0)
(0.8658 -0.000303858 0)
(0.8658 -0.000303847 0)
(0.8658 -0.000303834 0)
(0.8658 -0.00030384 0)
(0.8658 -0.000303843 0)
(0.8658 -0.000303844 0)
(0.8658 -0.000303837 0)
(0.8658 -0.000303854 0)
(0.8658 -0.000303848 0)
(0.8658 -0.000303842 0)
(0.8658 -0.000303838 0)
(0.8658 -0.000303852 0)
(0.8658 -0.000303842 0)
(0.8658 -0.000303835 0)
(0.8658 -0.000303835 0)
(0.8658 -0.000303848 0)
(0.8658 -0.000303839 0)
(0.8658 -0.000303834 0)
(0.8658 -0.000303831 0)
(0.8658 -0.000303841 0)
(0.8658 -0.000303843 0)
(0.8658 -0.000303841 0)
(0.8658 -0.000303826 0)
(0.8658 -0.00030383 0)
(0.8658 -0.000303823 0)
(0.8658 -0.000303812 0)
(0.8658 -0.00030378 0)
(0.865799 -0.000303737 0)
(0.865799 -0.000303676 0)
(0.865798 -0.000303581 0)
(0.865797 -0.000303419 0)
(0.865795 -0.000303181 0)
(0.865792 -0.000302851 0)
(0.865787 -0.000302398 0)
(0.865781 -0.00030182 0)
(0.865772 -0.000301145 0)
(0.86576 -0.000300723 0)
(0.865747 -0.000300835 0)
(0.865729 -0.00030127 0)
(0.865722 -0.000292916 0)
(0.865548 -0.00023882 0)
(0.865251 -7.22246e-05 0)
(0.86318 -0.000218113 0)
(0.960422 0.135842 0)
(1.02546 0.0244573 0)
(0.976313 0.00338592 0)
(0.987363 0.000868299 0)
(0.982976 0.000137051 0)
(0.984824 0.00064324 0)
(0.983691 0.000646612 0)
(0.983542 0.000707883 0)
(0.982966 0.000656095 0)
(0.982642 0.000627149 0)
(0.982301 0.000586473 0)
(0.982054 0.000555784 0)
(0.981844 0.000526713 0)
(0.981685 0.00050343 0)
(0.981561 0.000484778 0)
(0.981468 0.000469897 0)
(0.981399 0.000458128 0)
(0.98135 0.000449495 0)
(0.981315 0.000443019 0)
(0.98129 0.000438356 0)
(0.981273 0.000435059 0)
(0.981262 0.000432812 0)
(0.981254 0.000431134 0)
(0.981249 0.00043006 0)
(0.981246 0.000429366 0)
(0.981244 0.000428935 0)
(0.981242 0.000428564 0)
(0.981241 0.000428357 0)
(0.98124 0.000428197 0)
(0.98124 0.000428141 0)
(0.98124 0.000428053 0)
(0.98124 0.000428011 0)
(0.981239 0.000427978 0)
(0.981239 0.000427996 0)
(0.981239 0.000427971 0)
(0.981239 0.000427961 0)
(0.98124 0.000427948 0)
(0.98124 0.000427975 0)
(0.98124 0.000427959 0)
(0.98124 0.000427952 0)
(0.98124 0.000427931 0)
(0.98124 0.00042794 0)
(0.98124 0.000427931 0)
(0.98124 0.000427949 0)
(0.98124 0.000427958 0)
(0.98124 0.000427965 0)
(0.98124 0.000427936 0)
(0.98124 0.00042795 0)
(0.98124 0.000427969 0)
(0.98124 0.000427969 0)
(0.98124 0.000427964 0)
(0.981239 0.000427974 0)
(0.981239 0.00042795 0)
(0.981239 0.000427953 0)
(0.981239 0.000427947 0)
(0.981239 0.000427959 0)
(0.981239 0.000427946 0)
(0.98124 0.000427939 0)
(0.98124 0.000427939 0)
(0.98124 0.000427958 0)
(0.98124 0.000427958 0)
(0.98124 0.000427955 0)
(0.98124 0.000427943 0)
(0.98124 0.000427948 0)
(0.98124 0.00042793 0)
(0.98124 0.000427934 0)
(0.98124 0.00042794 0)
(0.98124 0.000427954 0)
(0.98124 0.000427943 0)
(0.98124 0.000427951 0)
(0.98124 0.000427959 0)
(0.98124 0.000427965 0)
(0.98124 0.000427952 0)
(0.98124 0.000427961 0)
(0.98124 0.000427965 0)
(0.98124 0.000427971 0)
(0.98124 0.000427959 0)
(0.98124 0.000427959 0)
(0.98124 0.000427958 0)
(0.98124 0.000427975 0)
(0.98124 0.000427977 0)
(0.98124 0.000427995 0)
(0.98124 0.000428022 0)
(0.98124 0.000428075 0)
(0.981239 0.000428157 0)
(0.981239 0.000428286 0)
(0.981238 0.00042848 0)
(0.981237 0.000428785 0)
(0.981234 0.000429237 0)
(0.981231 0.000429883 0)
(0.981227 0.000430776 0)
(0.98122 0.000431922 0)
(0.981211 0.000433331 0)
(0.981198 0.000434456 0)
(0.981183 0.000435306 0)
(0.981156 0.000436701 0)
(0.981135 0.000459561 0)
(0.98091 0.000570409 0)
(0.98054 0.000945397 0)
(0.977588 0.00117998 0)
(0.985044 0.123202 0)
(1.0596 0.0286997 0)
(1.01374 0.00475216 0)
(1.02588 0.000760371 0)
(1.0209 -0.000136895 0)
(1.02297 0.000492471 0)
(1.02181 0.000527694 0)
(1.02177 0.000606935 0)
(1.02124 0.000540857 0)
(1.02098 0.000499243 0)
(1.02067 0.000442867 0)
(1.02046 0.000398969 0)
(1.02027 0.000357475 0)
(1.02013 0.000323124 0)
(1.02002 0.000296357 0)
(1.01993 0.000274953 0)
(1.01987 0.00025791 0)
(1.01982 0.000245278 0)
(1.01979 0.000235824 0)
(1.01977 0.000228942 0)
(1.01975 0.000223988 0)
(1.01974 0.000220607 0)
(1.01973 0.000218185 0)
(1.01973 0.000216615 0)
(1.01973 0.000215542 0)
(1.01972 0.000214873 0)
(1.01972 0.000214345 0)
(1.01972 0.000214041 0)
(1.01972 0.000213802 0)
(1.01972 0.000213705 0)
(1.01972 0.00021359 0)
(1.01972 0.000213532 0)
(1.01972 0.00021348 0)
(1.01972 0.000213487 0)
(1.01972 0.000213459 0)
(1.01972 0.000213459 0)
(1.01972 0.000213437 0)
(1.01972 0.000213462 0)
(1.01972 0.000213433 0)
(1.01972 0.000213426 0)
(1.01972 0.000213402 0)
(1.01972 0.000213414 0)
(1.01972 0.000213407 0)
(1.01972 0.000213427 0)
(1.01972 0.000213434 0)
(1.01972 0.000213449 0)
(1.01972 0.000213417 0)
(1.01972 0.000213428 0)
(1.01972 0.00021346 0)
(1.01972 0.000213464 0)
(1.01972 0.000213449 0)
(1.01972 0.000213465 0)
(1.01972 0.000213438 0)
(1.01972 0.000213441 0)
(1.01972 0.000213426 0)
(1.01972 0.000213439 0)
(1.01972 0.000213432 0)
(1.01972 0.000213424 0)
(1.01972 0.000213416 0)
(1.01972 0.000213438 0)
(1.01972 0.000213443 0)
(1.01972 0.00021344 0)
(1.01972 0.00021342 0)
(1.01972 0.000213421 0)
(1.01972 0.000213401 0)
(1.01972 0.000213406 0)
(1.01972 0.000213412 0)
(1.01972 0.000213432 0)
(1.01972 0.000213425 0)
(1.01972 0.000213434 0)
(1.01972 0.000213443 0)
(1.01972 0.000213453 0)
(1.01972 0.000213438 0)
(1.01972 0.000213449 0)
(1.01972 0.000213455 0)
(1.01972 0.000213464 0)
(1.01972 0.000213449 0)
(1.01972 0.000213448 0)
(1.01972 0.000213446 0)
(1.01972 0.000213466 0)
(1.01972 0.000213476 0)
(1.01972 0.000213503 0)
(1.01972 0.000213546 0)
(1.01972 0.000213623 0)
(1.01972 0.000213745 0)
(1.01972 0.000213939 0)
(1.01972 0.000214232 0)
(1.01972 0.000214677 0)
(1.01971 0.000215336 0)
(1.01971 0.000216288 0)
(1.01971 0.000217614 0)
(1.0197 0.000219333 0)
(1.01969 0.000221549 0)
(1.01968 0.00022361 0)
(1.01966 0.000226284 0)
(1.01963 0.000231046 0)
(1.0196 0.000272655 0)
(1.01935 0.000446033 0)
(1.01899 0.0010529 0)
(1.01588 0.00177204 0)
(0.988613 0.109856 0)
(1.06805 0.0310189 0)
(1.02558 0.00577133 0)
(1.03848 0.000616523 0)
(1.03311 -0.000345271 0)
(1.03536 0.00035745 0)
(1.0342 0.000426767 0)
(1.03427 0.000517386 0)
(1.0338 0.00044206 0)
(1.03361 0.00039031 0)
(1.03335 0.000322152 0)
(1.03317 0.00026807 0)
(1.03302 0.000217237 0)
(1.0329 0.000174881 0)
(1.0328 0.000141315 0)
(1.03273 0.000114295 0)
(1.03268 9.26314e-05 0)
(1.03264 7.6341e-05 0)
(1.03261 6.3982e-05 0)
(1.03259 5.47632e-05 0)
(1.03257 4.80898e-05 0)
(1.03257 4.36801e-05 0)
(1.03256 4.0574e-05 0)
(1.03255 3.85667e-05 0)
(1.03255 3.71573e-05 0)
(1.03255 3.62569e-05 0)
(1.03255 3.55864e-05 0)
(1.03255 3.51956e-05 0)
(1.03255 3.48805e-05 0)
(1.03255 3.47413e-05 0)
(1.03255 3.46055e-05 0)
(1.03255 3.45335e-05 0)
(1.03255 3.44646e-05 0)
(1.03255 3.4461e-05 0)
(1.03255 3.44269e-05 0)
(1.03255 3.44326e-05 0)
(1.03255 3.44067e-05 0)
(1.03255 3.44317e-05 0)
(1.03255 3.43895e-05 0)
(1.03255 3.43774e-05 0)
(1.03255 3.43534e-05 0)
(1.03255 3.43733e-05 0)
(1.03255 3.43699e-05 0)
(1.03255 3.43882e-05 0)
(1.03255 3.43923e-05 0)
(1.03255 3.44156e-05 0)
(1.03255 3.43833e-05 0)
(1.03255 3.43888e-05 0)
(1.03255 3.44302e-05 0)
(1.03255 3.44426e-05 0)
(1.03255 3.44201e-05 0)
(1.03255 3.44368e-05 0)
(1.03255 3.44092e-05 0)
(1.03255 3.44137e-05 0)
(1.03255 3.4392e-05 0)
(1.03255 3.44009e-05 0)
(1.03255 3.43993e-05 0)
(1.03255 3.43923e-05 0)
(1.03255 3.43779e-05 0)
(1.03255 3.43991e-05 0)
(1.03255 3.44097e-05 0)
(1.03255 3.44084e-05 0)
(1.03255 3.43804e-05 0)
(1.03255 3.43759e-05 0)
(1.03255 3.4355e-05 0)
(1.03255 3.43617e-05 0)
(1.03255 3.43665e-05 0)
(1.03255 3.43908e-05 0)
(1.03255 3.43888e-05 0)
(1.03255 3.43991e-05 0)
(1.03255 3.44094e-05 0)
(1.03255 3.44213e-05 0)
(1.03255 3.44069e-05 0)
(1.03255 3.44187e-05 0)
(1.03255 3.44265e-05 0)
(1.03255 3.44377e-05 0)
(1.03255 3.44208e-05 0)
(1.03255 3.44181e-05 0)
(1.03255 3.44173e-05 0)
(1.03255 3.44405e-05 0)
(1.03255 3.44563e-05 0)
(1.03255 3.4491e-05 0)
(1.03255 3.45486e-05 0)
(1.03255 3.46483e-05 0)
(1.03255 3.48066e-05 0)
(1.03255 3.50592e-05 0)
(1.03254 3.54398e-05 0)
(1.03254 3.60126e-05 0)
(1.03254 3.68523e-05 0)
(1.03254 3.80688e-05 0)
(1.03254 3.97752e-05 0)
(1.03253 4.20132e-05 0)
(1.03252 4.50268e-05 0)
(1.03251 4.81744e-05 0)
(1.03249 5.3542e-05 0)
(1.03246 6.30728e-05 0)
(1.03242 0.000125035 0)
(1.03218 0.000351635 0)
(1.03185 0.00117217 0)
(1.02901 0.00230044 0)
(0.986403 0.0981601 0)
(1.06831 0.0322527 0)
(1.02896 0.00660644 0)
(1.04243 0.000578436 0)
(1.03677 -0.000402346 0)
(1.03917 0.000342732 0)
(1.03802 0.000444441 0)
(1.0382 0.000541718 0)
(1.0378 0.00046156 0)
(1.03767 0.000402911 0)
(1.03746 0.000327443 0)
(1.03733 0.00026713 0)
(1.0372 0.000211161 0)
(1.03711 0.000164932 0)
(1.03703 0.000126168 0)
(1.03698 9.47333e-05 0)
(1.03693 6.94624e-05 0)
(1.0369 5.03666e-05 0)
(1.03688 3.58414e-05 0)
(1.03686 2.49867e-05 0)
(1.03685 1.7113e-05 0)
(1.03684 1.18388e-05 0)
(1.03683 8.12095e-06 0)
(1.03683 5.70983e-06 0)
(1.03683 3.99466e-06 0)
(1.03682 2.8567e-06 0)
(1.03682 2.01618e-06 0)
(1.03682 1.53685e-06 0)
(1.03682 1.15704e-06 0)
(1.03682 9.78378e-07 0)
(1.03682 8.2606e-07 0)
(1.03682 7.42312e-07 0)
(1.03682 6.57238e-07 0)
(1.03682 6.42107e-07 0)
(1.03682 6.03471e-07 0)
(1.03682 6.13046e-07 0)
(1.03682 5.82972e-07 0)
(1.03682 6.07195e-07 0)
(1.03682 5.54634e-07 0)
(1.03682 5.3591e-07 0)
(1.03682 5.13112e-07 0)
(1.03682 5.41839e-07 0)
(1.03682 5.4506e-07 0)
(1.03682 5.61675e-07 0)
(1.03682 5.57883e-07 0)
(1.03682 5.87811e-07 0)
(1.03682 5.62792e-07 0)
(1.03682 5.63083e-07 0)
(1.03682 6.0866e-07 0)
(1.03682 6.29206e-07 0)
(1.03682 6.02089e-07 0)
(1.03682 6.18373e-07 0)
(1.03682 5.89433e-07 0)
(1.03682 5.95526e-07 0)
(1.03682 5.69187e-07 0)
(1.03682 5.72123e-07 0)
(1.03682 5.73632e-07 0)
(1.03682 5.69495e-07 0)
(1.03682 5.51298e-07 0)
(1.03682 5.70023e-07 0)
(1.03682 5.83897e-07 0)
(1.03682 5.84809e-07 0)
(1.03682 5.5174e-07 0)
(1.03682 5.41348e-07 0)
(1.03682 5.18353e-07 0)
(1.03682 5.27241e-07 0)
(1.03682 5.31493e-07 0)
(1.03682 5.57817e-07 0)
(1.03682 5.60966e-07 0)
(1.03682 5.72535e-07 0)
(1.03682 5.83675e-07 0)
(1.03682 5.98259e-07 0)
(1.03682 5.84984e-07 0)
(1.03682 5.9597e-07 0)
(1.03682 6.04799e-07 0)
(1.03682 6.19769e-07 0)
(1.03682 6.03312e-07 0)
(1.03682 5.97567e-07 0)
(1.03682 5.96057e-07 0)
(1.03682 6.22969e-07 0)
(1.03682 6.45922e-07 0)
(1.03682 6.87199e-07 0)
(1.03682 7.55847e-07 0)
(1.03682 8.74845e-07 0)
(1.03682 1.06485e-06 0)
(1.03682 1.36764e-06 0)
(1.03682 1.82226e-06 0)
(1.03682 2.54155e-06 0)
(1.03682 3.56679e-06 0)
(1.03682 5.03062e-06 0)
(1.03681 7.07933e-06 0)
(1.03681 9.78635e-06 0)
(1.0368 1.35719e-05 0)
(1.03679 1.78756e-05 0)
(1.03678 2.59777e-05 0)
(1.03674 4.02596e-05 0)
(1.0367 0.000121045 0)
(1.03647 0.000386655 0)
(1.03621 0.00140314 0)
(1.03381 0.00285079 0)
(0.983077 0.0875426 0)
(1.06618 0.0325697 0)
(1.02959 0.00720467 0)
(1.04348 0.000560074 0)
(1.03761 -0.000411304 0)
(1.04014 0.000352272 0)
(1.039 0.00048478 0)
(1.03928 0.000586616 0)
(1.03894 0.000504241 0)
(1.03888 0.000440537 0)
(1.03872 0.000359638 0)
(1.03863 0.000294213 0)
(1.03854 0.000233522 0)
(1.03847 0.000183149 0)
(1.03841 0.000140595 0)
(1.03837 0.000105968 0)
(1.03833 7.81225e-05 0)
(1.03831 5.71152e-05 0)
(1.03829 4.12312e-05 0)
(1.03828 2.95134e-05 0)
(1.03827 2.09894e-05 0)
(1.03826 1.50329e-05 0)
(1.03826 1.08038e-05 0)
(1.03825 8.037e-06 0)
(1.03825 6.05543e-06 0)
(1.03825 4.69592e-06 0)
(1.03825 3.69701e-06 0)
(1.03825 3.14512e-06 0)
(1.03825 2.71572e-06 0)
(1.03825 2.50427e-06 0)
(1.03825 2.33598e-06 0)
(1.03825 2.24211e-06 0)
(1.03825 2.14439e-06 0)
(1.03825 2.11743e-06 0)
(1.03825 2.07376e-06 0)
(1.03825 2.08578e-06 0)
(1.03825 2.05173e-06 0)
(1.03825 2.07469e-06 0)
(1.03825 2.01587e-06 0)
(1.03825 1.99047e-06 0)
(1.03825 1.96945e-06 0)
(1.03825 2.00559e-06 0)
(1.03825 2.0165e-06 0)
(1.03825 2.03428e-06 0)
(1.03825 2.01993e-06 0)
(1.03825 2.0527e-06 0)
(1.03825 2.03987e-06 0)
(1.03825 2.03748e-06 0)
(1.03825 2.0825e-06 0)
(1.03825 2.10972e-06 0)
(1.03825 2.08043e-06 0)
(1.03825 2.09566e-06 0)
(1.03825 2.06599e-06 0)
(1.03825 2.07331e-06 0)
(1.03825 2.0445e-06 0)
(1.03825 2.04056e-06 0)
(1.03825 2.04242e-06 0)
(1.03825 2.04191e-06 0)
(1.03825 2.0223e-06 0)
(1.03825 2.03737e-06 0)
(1.03825 2.0527e-06 0)
(1.03825 2.05585e-06 0)
(1.03825 2.01962e-06 0)
(1.03825 2.00379e-06 0)
(1.03825 1.97797e-06 0)
(1.03825 1.98859e-06 0)
(1.03825 1.993e-06 0)
(1.03825 2.02061e-06 0)
(1.03825 2.02868e-06 0)
(1.03825 2.04127e-06 0)
(1.03825 2.05237e-06 0)
(1.03825 2.06982e-06 0)
(1.03825 2.0592e-06 0)
(1.03825 2.06911e-06 0)
(1.03825 2.07749e-06 0)
(1.03825 2.09616e-06 0)
(1.03825 2.08191e-06 0)
(1.03825 2.07394e-06 0)
(1.03825 2.07031e-06 0)
(1.03825 2.09991e-06 0)
(1.03825 2.12984e-06 0)
(1.03825 2.177e-06 0)
(1.03825 2.25439e-06 0)
(1.03825 2.38798e-06 0)
(1.03825 2.60349e-06 0)
(1.03825 2.94708e-06 0)
(1.03825 3.46359e-06 0)
(1.03825 4.29376e-06 0)
(1.03824 5.49378e-06 0)
(1.03824 7.17654e-06 0)
(1.03824 9.52182e-06 0)
(1.03824 1.26394e-05 0)
(1.03823 1.71426e-05 0)
(1.03822 2.25949e-05 0)
(1.03821 3.31986e-05 0)
(1.03818 5.17209e-05 0)
(1.03814 0.000148985 0)
(1.03794 0.000449179 0)
(1.03774 0.00163077 0)
(1.03586 0.0033173 0)
(0.979966 0.0778288 0)
(1.06355 0.032118 0)
(1.02936 0.00755288 0)
(1.04358 0.000527355 0)
(1.03755 -0.00041375 0)
(1.04017 0.000350241 0)
(1.03905 0.000510159 0)
(1.03943 0.000614366 0)
(1.03914 0.000532259 0)
(1.03914 0.00046555 0)
(1.03903 0.000381513 0)
(1.03898 0.000312754 0)
(1.03892 0.000248784 0)
(1.03888 0.000195294 0)
(1.03884 0.000150195 0)
(1.03881 0.000113355 0)
(1.03879 8.36457e-05 0)
(1.03877 6.11843e-05 0)
(1.03875 4.41662e-05 0)
(1.03874 3.15784e-05 0)
(1.03874 2.23992e-05 0)
(1.03873 1.59471e-05 0)
(1.03873 1.13568e-05 0)
(1.03873 8.33709e-06 0)
(1.03873 6.18822e-06 0)
(1.03872 4.71311e-06 0)
(1.03872 3.62914e-06 0)
(1.03872 2.99908e-06 0)
(1.03872 2.53231e-06 0)
(1.03872 2.29514e-06 0)
(1.03872 2.10934e-06 0)
(1.03872 2.00486e-06 0)
(1.03872 1.89886e-06 0)
(1.03872 1.86166e-06 0)
(1.03872 1.81196e-06 0)
(1.03872 1.82512e-06 0)
(1.03872 1.78756e-06 0)
(1.03872 1.80832e-06 0)
(1.03872 1.74759e-06 0)
(1.03872 1.71705e-06 0)
(1.03872 1.69808e-06 0)
(1.03872 1.73932e-06 0)
(1.03872 1.7568e-06 0)
(1.03872 1.77903e-06 0)
(1.03872 1.75458e-06 0)
(1.03872 1.78565e-06 0)
(1.03872 1.78758e-06 0)
(1.03872 1.78639e-06 0)
(1.03872 1.8269e-06 0)
(1.03872 1.85828e-06 0)
(1.03872 1.82888e-06 0)
(1.03872 1.84278e-06 0)
(1.03872 1.81338e-06 0)
(1.03872 1.82169e-06 0)
(1.03872 1.79181e-06 0)
(1.03872 1.78109e-06 0)
(1.03872 1.78097e-06 0)
(1.03872 1.784e-06 0)
(1.03872 1.76508e-06 0)
(1.03872 1.77603e-06 0)
(1.03872 1.79096e-06 0)
(1.03872 1.79607e-06 0)
(1.03872 1.7582e-06 0)
(1.03872 1.73742e-06 0)
(1.03872 1.7083e-06 0)
(1.03872 1.72015e-06 0)
(1.03872 1.72549e-06 0)
(1.03872 1.75416e-06 0)
(1.03872 1.76701e-06 0)
(1.03872 1.78029e-06 0)
(1.03872 1.79003e-06 0)
(1.03872 1.81008e-06 0)
(1.03872 1.80383e-06 0)
(1.03872 1.81332e-06 0)
(1.03872 1.81973e-06 0)
(1.03872 1.84119e-06 0)
(1.03872 1.83053e-06 0)
(1.03872 1.82162e-06 0)
(1.03872 1.81509e-06 0)
(1.03872 1.84567e-06 0)
(1.03872 1.88175e-06 0)
(1.03872 1.93373e-06 0)
(1.03872 2.01789e-06 0)
(1.03872 2.163e-06 0)
(1.03872 2.39897e-06 0)
(1.03872 2.77472e-06 0)
(1.03872 3.35861e-06 0)
(1.03872 4.24061e-06 0)
(1.03872 5.51709e-06 0)
(1.03872 7.32098e-06 0)
(1.03872 9.86462e-06 0)
(1.03872 1.3293e-05 0)
(1.03871 1.84056e-05 0)
(1.0387 2.49306e-05 0)
(1.03869 3.81654e-05 0)
(1.03866 6.09915e-05 0)
(1.03863 0.000172694 0)
(1.03847 0.000499274 0)
(1.03833 0.00180387 0)
(1.037 0.00365521 0)
(0.977357 0.0689836 0)
(1.06102 0.031059 0)
(1.02892 0.00767646 0)
(1.04336 0.000483742 0)
(1.03723 -0.000412975 0)
(1.03992 0.000336955 0)
(1.03881 0.000519388 0)
(1.03927 0.000623818 0)
(1.03904 0.000544114 0)
(1.0391 0.000476435 0)
(1.03903 0.000391639 0)
(1.03902 0.00032157 0)
(1.03899 0.000256217 0)
(1.03897 0.000201227 0)
(1.03895 0.000154842 0)
(1.03893 0.000116797 0)
(1.03892 8.601e-05 0)
(1.03891 6.26695e-05 0)
(1.0389 4.49293e-05 0)
(1.03889 3.17275e-05 0)
(1.03889 2.20783e-05 0)
(1.03889 1.53173e-05 0)
(1.03889 1.05159e-05 0)
(1.03888 7.3461e-06 0)
(1.03888 5.11496e-06 0)
(1.03888 3.61212e-06 0)
(1.03888 2.50394e-06 0)
(1.03888 1.83141e-06 0)
(1.03888 1.33851e-06 0)
(1.03888 1.07765e-06 0)
(1.03888 8.67582e-07 0)
(1.03888 7.50053e-07 0)
(1.03888 6.394e-07 0)
(1.03888 5.95565e-07 0)
(1.03888 5.38964e-07 0)
(1.03888 5.50936e-07 0)
(1.03888 5.10909e-07 0)
(1.03888 5.29142e-07 0)
(1.03888 4.70075e-07 0)
(1.03888 4.36918e-07 0)
(1.03888 4.20166e-07 0)
(1.03888 4.64212e-07 0)
(1.03888 4.85902e-07 0)
(1.03888 5.14492e-07 0)
(1.03888 4.83288e-07 0)
(1.03888 5.08535e-07 0)
(1.03888 5.25096e-07 0)
(1.03888 5.29316e-07 0)
(1.03888 5.6306e-07 0)
(1.03888 5.95541e-07 0)
(1.03888 5.67821e-07 0)
(1.03888 5.80104e-07 0)
(1.03888 5.51733e-07 0)
(1.03888 5.61259e-07 0)
(1.03888 5.31486e-07 0)
(1.03888 5.14066e-07 0)
(1.03888 5.10234e-07 0)
(1.03888 5.16154e-07 0)
(1.03888 4.99943e-07 0)
(1.03888 5.06658e-07 0)
(1.03888 5.19501e-07 0)
(1.03888 5.25602e-07 0)
(1.03888 4.8727e-07 0)
(1.03888 4.63025e-07 0)
(1.03888 4.30564e-07 0)
(1.03888 4.43082e-07 0)
(1.03888 4.49852e-07 0)
(1.03888 4.79375e-07 0)
(1.03888 4.96428e-07 0)
(1.03888 5.1041e-07 0)
(1.03888 5.17545e-07 0)
(1.03888 5.39147e-07 0)
(1.03888 5.38582e-07 0)
(1.03888 5.49347e-07 0)
(1.03888 5.52934e-07 0)
(1.03888 5.75337e-07 0)
(1.03888 5.69e-07 0)
(1.03888 5.60644e-07 0)
(1.03888 5.51187e-07 0)
(1.03888 5.80955e-07 0)
(1.03888 6.22031e-07 0)
(1.03888 6.77599e-07 0)
(1.03888 7.66549e-07 0)
(1.03888 9.25357e-07 0)
(1.03888 1.18263e-06 0)
(1.03888 1.58315e-06 0)
(1.03888 2.19705e-06 0)
(1.03888 3.09337e-06 0)
(1.03888 4.36608e-06 0)
(1.03888 6.20558e-06 0)
(1.03888 8.85511e-06 0)
(1.03888 1.24927e-05 0)
(1.03887 1.80839e-05 0)
(1.03887 2.55348e-05 0)
(1.03886 4.11524e-05 0)
(1.03884 6.77595e-05 0)
(1.03881 0.000190673 0)
(1.03869 0.000533658 0)
(1.03863 0.00191703 0)
(1.03784 0.00386451 0)
(0.975241 0.0609099 0)
(1.05874 0.0295205 0)
(1.02845 0.00760444 0)
(1.04306 0.000435969 0)
(1.03684 -0.000407136 0)
(1.03958 0.000316487 0)
(1.03849 0.00051553 0)
(1.03902 0.000618258 0)
(1.03884 0.000542599 0)
(1.03895 0.000475735 0)
(1.03893 0.000392272 0)
(1.03895 0.000322717 0)
(1.03895 0.000257699 0)
(1.03895 0.000202705 0)
(1.03895 0.000156233 0)
(1.03895 0.000117972 0)
(1.03895 8.69109e-05 0)
(1.03894 6.33097e-05 0)
(1.03894 4.53364e-05 0)
(1.03894 3.18913e-05 0)
(1.03894 2.20272e-05 0)
(1.03894 1.51272e-05 0)
(1.03894 1.02357e-05 0)
(1.03894 6.98456e-06 0)
(1.03893 4.70196e-06 0)
(1.03893 3.18248e-06 0)
(1.03893 2.07255e-06 0)
(1.03893 1.41101e-06 0)
(1.03893 9.10121e-07 0)
(1.03893 6.39475e-07 0)
(1.03893 4.18556e-07 0)
(1.03893 2.89297e-07 0)
(1.03893 1.7545e-07 0)
(1.03893 1.28386e-07 0)
(1.03893 6.55447e-08 0)
(1.03893 7.27861e-08 0)
(1.03893 3.12953e-08 0)
(1.03893 4.76172e-08 0)
(1.03893 -6.63427e-09 0)
(1.03893 -3.87561e-08 0)
(1.03893 -5.32492e-08 0)
(1.03893 -8.41991e-09 0)
(1.03893 1.47731e-08 0)
(1.03893 4.87366e-08 0)
(1.03893 1.56396e-08 0)
(1.03893 3.26928e-08 0)
(1.03893 6.17749e-08 0)
(1.03893 7.4549e-08 0)
(1.03893 1.02094e-07 0)
(1.03893 1.32592e-07 0)
(1.03893 1.07835e-07 0)
(1.03893 1.18681e-07 0)
(1.03893 9.13522e-08 0)
(1.03893 1.02492e-07 0)
(1.03893 7.4e-08 0)
(1.03893 4.90504e-08 0)
(1.03893 4.01888e-08 0)
(1.03893 4.80768e-08 0)
(1.03893 3.61714e-08 0)
(1.03893 3.90098e-08 0)
(1.03893 4.81813e-08 0)
(1.03893 5.38017e-08 0)
(1.03893 1.58505e-08 0)
(1.03893 -8.32035e-09 0)
(1.03893 -4.33225e-08 0)
(1.03893 -3.08474e-08 0)
(1.03893 -2.27989e-08 0)
(1.03893 6.93899e-09 0)
(1.03893 2.6483e-08 0)
(1.03893 4.14877e-08 0)
(1.03893 4.51736e-08 0)
(1.03893 6.66307e-08 0)
(1.03893 7.23296e-08 0)
(1.03893 8.66425e-08 0)
(1.03893 8.83638e-08 0)
(1.03893 1.09436e-07 0)
(1.03893 1.07285e-07 0)
(1.03893 1.00696e-07 0)
(1.03893 8.88221e-08 0)
(1.03893 1.16643e-07 0)
(1.03893 1.61717e-07 0)
(1.03893 2.19788e-07 0)
(1.03893 3.10811e-07 0)
(1.03893 4.7297e-07 0)
(1.03893 7.36815e-07 0)
(1.03893 1.14414e-06 0)
(1.03893 1.74182e-06 0)
(1.03893 2.62465e-06 0)
(1.03893 3.89119e-06 0)
(1.03893 5.74214e-06 0)
(1.03893 8.44704e-06 0)
(1.03893 1.22155e-05 0)
(1.03893 1.81531e-05 0)
(1.03893 2.63331e-05 0)
(1.03892 4.38512e-05 0)
(1.03891 7.33539e-05 0)
(1.03888 0.000203623 0)
(1.03882 0.000553314 0)
(1.03882 0.00197252 0)
(1.03856 0.00395345 0)
(0.97354 0.0534869 0)
(1.05675 0.0275965 0)
(1.02802 0.00736098 0)
(1.04276 0.000387309 0)
(1.03647 -0.000395678 0)
(1.03924 0.000290947 0)
(1.03816 0.000499994 0)
(1.03876 0.000599269 0)
(1.03863 0.000528875 0)
(1.03879 0.000464354 0)
(1.0388 0.00038402 0)
(1.03886 0.000316563 0)
(1.03888 0.000253374 0)
(1.03891 0.000199686 0)
(1.03892 0.000154234 0)
(1.03893 0.000116681 0)
(1.03894 8.61076e-05 0)
(1.03894 6.28351e-05 0)
(1.03895 4.50943e-05 0)
(1.03895 3.17638e-05 0)
(1.03895 2.19333e-05 0)
(1.03895 1.50609e-05 0)
(1.03895 1.01987e-05 0)
(1.03895 6.94045e-06 0)
(1.03895 4.64369e-06 0)
(1.03895 3.12173e-06 0)
(1.03895 2.01426e-06 0)
(1.03895 1.35672e-06 0)
(1.03895 8.60972e-07 0)
(1.03895 5.94307e-07 0)
(1.03895 3.78125e-07 0)
(1.03895 2.41438e-07 0)
(1.03895 1.26018e-07 0)
(1.03895 8.10077e-08 0)
(1.03895 1.35462e-08 0)
(1.03895 1.33936e-08 0)
(1.03895 -2.93415e-08 0)
(1.03895 -1.35687e-08 0)
(1.03895 -6.18677e-08 0)
(1.03895 -9.19381e-08 0)
(1.03895 -1.04128e-07 0)
(1.03895 -6.01121e-08 0)
(1.03895 -3.74825e-08 0)
(1.03895 2.62445e-09 0)
(1.03895 -2.73556e-08 0)
(1.03895 -1.84414e-08 0)
(1.03895 1.79417e-08 0)
(1.03895 4.1522e-08 0)
(1.03895 6.23762e-08 0)
(1.03895 8.82835e-08 0)
(1.03895 6.76921e-08 0)
(1.03895 7.80915e-08 0)
(1.03895 5.10783e-08 0)
(1.03895 6.35644e-08 0)
(1.03895 3.82565e-08 0)
(1.03895 8.12889e-09 0)
(1.03895 -6.96122e-09 0)
(1.03895 1.76737e-09 0)
(1.03895 -4.80107e-09 0)
(1.03895 -5.46192e-09 0)
(1.03895 -7.46746e-10 0)
(1.03895 2.34327e-09 0)
(1.03895 -3.46033e-08 0)
(1.03895 -5.77153e-08 0)
(1.03895 -9.45417e-08 0)
(1.03895 -8.299e-08 0)
(1.03895 -7.35988e-08 0)
(1.03895 -4.36312e-08 0)
(1.03895 -2.11599e-08 0)
(1.03895 -4.51326e-09 0)
(1.03895 -4.70855e-09 0)
(1.03895 1.46147e-08 0)
(1.03895 2.64845e-08 0)
(1.03895 4.65421e-08 0)
(1.03895 4.65828e-08 0)
(1.03895 6.38327e-08 0)
(1.03895 6.49673e-08 0)
(1.03895 6.17568e-08 0)
(1.03895 4.84825e-08 0)
(1.03895 7.22454e-08 0)
(1.03895 1.18675e-07 0)
(1.03895 1.77693e-07 0)
(1.03895 2.67364e-07 0)
(1.03895 4.21472e-07 0)
(1.03895 6.76372e-07 0)
(1.03895 1.07455e-06 0)
(1.03895 1.65923e-06 0)
(1.03895 2.53329e-06 0)
(1.03895 3.78959e-06 0)
(1.03895 5.62612e-06 0)
(1.03895 8.33312e-06 0)
(1.03895 1.21472e-05 0)
(1.03895 1.82785e-05 0)
(1.03895 2.6943e-05 0)
(1.03895 4.57625e-05 0)
(1.03894 7.71246e-05 0)
(1.03893 0.000210687 0)
(1.03892 0.000557945 0)
(1.03898 0.00197223 0)
(1.03921 0.00393004 0)
(0.972174 0.0466071 0)
(1.05502 0.0253602 0)
(1.02765 0.0069671 0)
(1.04248 0.000339344 0)
(1.03614 -0.0003783 0)
(1.03893 0.000261846 0)
(1.03786 0.00047387 0)
(1.03851 0.000568041 0)
(1.03842 0.000503807 0)
(1.03862 0.000442937 0)
(1.03867 0.000367282 0)
(1.03876 0.000303326 0)
(1.03881 0.000243288 0)
(1.03885 0.000192087 0)
(1.03888 0.000148667 0)
(1.03891 0.000112669 0)
(1.03892 8.32907e-05 0)
(1.03893 6.08977e-05 0)
(1.03894 4.38179e-05 0)
(1.03895 3.09344e-05 0)
(1.03895 2.13732e-05 0)
(1.03895 1.46937e-05 0)
(1.03896 9.9825e-06 0)
(1.03896 6.80439e-06 0)
(1.03896 4.54959e-06 0)
(1.03896 3.0617e-06 0)
(1.03896 1.98024e-06 0)
(1.03896 1.33689e-06 0)
(1.03896 8.52857e-07 0)
(1.03896 5.89967e-07 0)
(1.03896 3.75707e-07 0)
(1.03896 2.34924e-07 0)
(1.03896 1.1893e-07 0)
(1.03896 8.01992e-08 0)
(1.03896 1.06459e-08 0)
(1.03896 1.63002e-09 0)
(1.03896 -4.31548e-08 0)
(1.03896 -2.62562e-08 0)
(1.03896 -6.78288e-08 0)
(1.03896 -9.55609e-08 0)
(1.03896 -1.05666e-07 0)
(1.03896 -6.35186e-08 0)
(1.03896 -4.3222e-08 0)
(1.03896 3.5266e-09 0)
(1.03896 -1.92908e-08 0)
(1.03896 -1.59118e-08 0)
(1.03896 2.18317e-08 0)
(1.03896 5.61409e-08 0)
(1.03896 7.05129e-08 0)
(1.03896 9.03621e-08 0)
(1.03896 7.45223e-08 0)
(1.03896 8.61234e-08 0)
(1.03896 5.84065e-08 0)
(1.03896 7.1262e-08 0)
(1.03896 5.09302e-08 0)
(1.03896 1.92369e-08 0)
(1.03896 -2.81539e-09 0)
(1.03896 5.3004e-09 0)
(1.03896 4.30288e-09 0)
(1.03896 1.3308e-09 0)
(1.03896 8.96821e-10 0)
(1.03896 3.60808e-10 0)
(1.03896 -3.64236e-08 0)
(1.03896 -5.817e-08 0)
(1.03896 -9.5517e-08 0)
(1.03896 -8.56019e-08 0)
(1.03896 -7.5056e-08 0)
(1.03896 -4.49556e-08 0)
(1.03896 -1.8996e-08 0)
(1.03896 8.06614e-11 0)
(1.03896 -2.95145e-09 0)
(1.03896 1.24286e-08 0)
(1.03896 2.88604e-08 0)
(1.03896 5.60333e-08 0)
(1.03896 5.51394e-08 0)
(1.03896 6.69097e-08 0)
(1.03896 6.95638e-08 0)
(1.03896 7.1066e-08 0)
(1.03896 5.76852e-08 0)
(1.03896 7.54534e-08 0)
(1.03896 1.20161e-07 0)
(1.03896 1.78539e-07 0)
(1.03896 2.63984e-07 0)
(1.03896 4.11231e-07 0)
(1.03896 6.58076e-07 0)
(1.03896 1.04265e-06 0)
(1.03896 1.60766e-06 0)
(1.03896 2.4586e-06 0)
(1.03896 3.67836e-06 0)
(1.03896 5.45846e-06 0)
(1.03896 8.10141e-06 0)
(1.03896 1.18632e-05 0)
(1.03896 1.80144e-05 0)
(1.03897 2.68817e-05 0)
(1.03897 4.63288e-05 0)
(1.03897 7.84359e-05 0)
(1.03896 0.000211197 0)
(1.03901 0.000547394 0)
(1.03912 0.00191876 0)
(1.03982 0.00380289 0)
(0.971078 0.040181 0)
(1.05354 0.0228709 0)
(1.02732 0.00644211 0)
(1.04223 0.000292997 0)
(1.03584 -0.000354608 0)
(1.03864 0.000230611 0)
(1.03758 0.000438457 0)
(1.03828 0.00052595 0)
(1.03822 0.000468513 0)
(1.03847 0.000412412 0)
(1.03855 0.000342763 0)
(1.03866 0.000283543 0)
(1.03873 0.000227828 0)
(1.0388 0.000180172 0)