/*--------------------------------*- C++ -*----------------------------------*\
| =========                 |                                                 |
| \\      /  F ield         | OpenFOAM: The Open Source CFD Toolbox           |
|  \\    /   O peration     | Version:  2.3.0                                 |
|   \\  /    A nd           | Web:      www.OpenFOAM.org                      |
|    \\/     M anipulation  |                                                 |
\*---------------------------------------------------------------------------*/
FoamFile
{
    version     2.0;
    format      ascii;
    class       volScalarField;
    location    "0.25";
    object      T;
}
// * * * * * * * * * * * * * * * * * * * * * * * * * * * * * * * * * * * * * //

dimensions      [0 0 0 1 0 0 0];

internalField   nonuniform List<scalar> 
2268
(
270
270
270
270
270
270
270
270
270
270
270
270
270
270
270
270
270
270
270
270
270
270
270
270
270
270
270
270
270
270
270
270
270
270
270
270
270
270
270
270
270
270
270
270
270
270
270
270
270
270
270
270
270
270
270
270
270
270
270
270
270
270
270
270
270
270
270
270
270
270
270
270
270
270
270
270
270
270
270
270
270
270
270
270
270
270
270
270
270
270
270
270
270
270
270
270
270
270
270
270
270
270
270
270
270
270
270
270
270
270
270
270
270
270
270
270
270
270
270
270
270
270
270
270
270
270
270
270
270
270
270
270
270
270
270
270
270
270
270
270
270
270
270
270
270
270
270
270
270
270
270
270
270
270
270
270
270
270
270
270
270
270
270
270
270
270
270
270
270
270
270
270
270
270
270
270
270
270
270
270
270
270
270
270
269.999
269.997
269.998
269.998
269.998
269.998
269.999
270
270.001
270.001
270.001
270.001
270.002
270.002
270
269.999
269.999
270.001
269.999
269.998
269.996
269.997
269.998
269.998
269.998
269.999
270.001
270.001
270.001
270.002
270.003
270.002
270
269.999
270
270
270.001
269.999
269.998
269.997
269.997
269.998
269.998
269.998
269.999
270
270
270.001
270.002
270.001
270.002
270.001
270
269.999
270
270.001
269.999
269.998
269.997
269.997
269.998
269.998
269.999
270
270.001
270.001
270.002
270.003
270.001
270.001
270
269.999
270.001
270
270
269.999
269.998
269.997
269.997
269.998
269.999
270
270.001
270.001
270.001
270.001
270.002
270
270
270.001
270.001
270.001
269.999
270
269.999
269.998
269.998
269.997
269.998
269.999
270
270.001
270.001
270.001
270.001
270.001
270.001
270.001
270.001
270.001
270
269.999
270
270
269.998
269.998
269.998
269.999
270
270
270
270.001
270.001
270.002
270.001
270.001
270.002
270.001
270
270
270
270.001
270
269.999
269.999
269.998
269.999
270
270
270
270.001
270.001
270.001
270.001
270.001
270.001
270
269.999
270
270
270
270
270
270
270
270
270
270
270
270
270
270
270
270
270
270.001
270.001
270.001
270.001
270.001
270.001
270
270
270
270
270
270
270
270
270
270
270
270
270
270
270
270.001
270.001
270.001
269.999
269.996
269.993
269.994
269.996
269.999
270.001
270.001
270.001
270
270
270
270
270
270
270
270
270
270
270.001
270.001
269.998
269.99
269.978
269.964
269.953
269.95
269.958
269.97
269.981
269.991
269.996
270
270
270
270
270
270
270
270
270
270.001
269.999
269.991
269.975
269.956
269.946
269.953
269.976
269.999
270.002
269.991
269.981
269.978
269.982
270
270
270
270
270
270
270
270.001
270.002
269.998
269.986
269.965
269.951
269.978
270.062
270.213
270.419
270.593
270.63
270.43
270.229
270.104
270.043
270
270
270
270
270
270
270
270.003
270.001
269.988
269.977
270.009
270.103
270.333
270.713
271.161
271.59
271.809
271.733
271.094
270.746
270.485
270.242
270
270
270
270
270
270
270.001
270.001
269.994
270.014
270.119
270.5
270.926
271.347
271.552
271.647
271.763
271.628
271.024
270.569
270.496
270.548
270.488
270
270
270
270
270
270.001
269.997
269.976
270.014
270.259
270.754
271.289
271.547
271.557
271.534
271.693
271.852
271.51
270.608
270.156
270.006
270.073
270.24
270.001
270
269.999
269.999
270
270.003
269.971
269.892
270.193
271.077
271.91
272.08
271.711
271.163
271.024
271.372
271.664
270.923
270.293
269.945
269.827
269.851
269.984
270.001
270.001
269.999
269.998
270.003
270.005
269.862
270.079
271.567
272.956
272.862
271.654
270.711
270.324
270.227
270.6
271.07
270.68
270.158
269.846
269.777
269.849
269.929
270.001
270
269.999
270
270.009
269.933
269.809
271.448
274.173
273.869
271.694
270.171
269.808
269.796
269.838
270.068
270.564
270.351
269.973
269.793
269.827
269.925
269.978
270.001
270
270
270.005
269.993
269.776
270.252
274.118
276.109
272.332
269.677
269.626
269.788
269.847
269.899
270.202
270.282
270.053
269.86
269.843
269.928
269.986
270.005
270
270
270.001
270.01
269.931
269.623
271.399
277.013
276.34
270.166
269.041
269.912
270.018
269.987
270.084
270.127
270.007
269.891
269.908
269.971
270
270.009
270.016
270
270
270.004
270.013
269.826
269.57
272.777
279.069
276.299
269.623
269.168
270.08
269.998
269.966
270.017
269.929
269.864
269.967
270.003
270.007
270.012
270.031
270.049
270
270
270.007
270.011
269.72
269.563
273.607
280.327
277.818
270.778
269.002
269.751
269.938
269.94
269.919
269.957
270.019
270.02
270.005
270.011
270.03
270.056
270.063
270
270.001
270.011
270.009
269.658
269.47
273.489
281.126
281.102
273.487
269.297
269.36
269.764
269.906
269.984
270.009
270.011
270.01
270.011
270.018
270.034
270.048
270.043
270
270.001
270.012
270.015
269.665
269.269
272.54
281.068
285.007
278.681
271.546
269.365
269.39
269.574
269.723
269.817
269.88
269.923
269.957
269.988
270.015
270.028
270.024
270
270
270.011
270.028
269.737
269.097
271.166
279.522
287.756
285.768
277.259
271.548
269.776
269.385
269.342
269.415
269.519
269.64
269.772
269.9
269.988
270.02
270.018
270
270
270.008
270.037
269.847
269.105
269.867
276.701
287.676
292.007
286.006
277.777
273.059
271.035
270.104
269.681
269.531
269.549
269.676
269.841
269.964
270.012
270.014
270
270
270.004
270.036
269.954
269.304
269.048
273.485
284.534
294.454
294.548
287.458
280.703
276.677
274.331
272.815
271.756
270.969
270.39
270.04
269.935
269.975
270.012
270
270
270.001
270.026
270.022
269.589
268.848
270.858
279.604
292.072
298.954
296.854
291.067
286.331
283.101
280.496
277.948
275.238
272.596
270.655
269.868
269.899
270.018
270
270
269.999
270.014
270.042
269.833
269.1
269.405
274.778
286.235
297.398
301.536
299.599
296.342
293.718
290.996
287.149
281.854
276.012
271.551
269.753
269.802
270.031
270
270
269.999
270.004
270.032
269.974
269.498
269.052
271.426
279.563
291.169
299.748
302.469
302.088
301.29
299.696
295.624
288.345
279.444
272.434
269.632
269.712
270.045
270
270
269.999
270
270.015
270.022
269.819
269.311
269.796
274.1
283.048
292.844
299.134
301.865
303.256
303.458
300.408
292.675
282.03
273.205
269.579
269.643
270.053
270
270
270
269.999
270.003
270.021
269.989
269.715
269.43
270.706
275.514
283.312
290.924
296.32
300.068
302.407
301.354
294.775
283.927
274.073
269.666
269.579
270.052
270
270
270
270
269.999
270.006
270.03
269.986
269.697
269.458
270.578
274.329
280.193
286.45
292.171
296.861
298.597
294.67
285.206
275.137
269.932
269.512
270.039
270
270
270
270.001
269.999
269.999
270.012
270.05
269.997
269.631
269.104
269.372
271.489
275.562
280.943
286.713
290.969
290.688
284.496
275.802
270.33
269.486
270.013
270
270.001
270.001
270.001
270.001
270
269.998
270.012
270.054
270.018
269.669
268.994
268.575
269.278
271.623
275.502
279.834
282.198
280.274
275.011
270.643
269.577
269.982
270.001
270.001
270.001
270.001
270.001
270.001
269.999
269.994
270.001
270.058
270.13
270.031
269.595
268.983
268.716
269.38
271.162
273.267
274.028
272.635
270.585
269.787
269.967
270.001
270.001
270.001
270.001
270.001
270.001
270.002
270.001
269.994
269.992
270.036
270.148
270.242
270.132
269.716
269.152
268.84
269.12
269.818
270.273
270.18
269.974
269.983
270.001
270.001
270.001
270.001
270.001
270.001
270.001
270.002
270.004
269.997
269.975
269.951
269.972
270.059
270.134
270.042
269.709
269.309
269.188
269.472
269.86
270.021
270.007
270.001
270.001
270.001
270.001
270.001
270.001
270.001
270
270
270.003
270.008
270.009
269.998
269.984
269.998
270.047
270.072
269.992
269.836
269.773
269.876
269.996
270.011
270.001
270.001
270.001
270.001
270.001
270.001
270.001
270.001
270.001
270.001
270
270
270.002
270.002
269.997
269.994
270.009
270.038
270.046
270.017
269.99
269.994
270.002
270.001
270.001
270.001
270.001
270.001
270.001
270.001
270.001
270.001
270.001
270.001
270.001
270.001
270.001
270.001
270
269.997
270
270.011
270.02
270.014
270.002
269.999
270.001
270.001
270
270.001
270
270.001
270.001
270.001
270
270
270.001
270.001
270.001
270.001
270.001
270.001
270
270
269.999
270.001
270.002
270.001
269.999
270.001
270
270
270
270
270
270.001
270
270
270
270
270.001
270.001
270.001
270.001
270
270
270.001
270
270
269.999
269.999
269.999
270
270
270
270
270
270
270
270
270
270
270
270.001
270.001
270.001
270.001
270
270
270.001
270.001
270
270
269.999
269.999
270
270
270
270
270
270
270
270
270
270
270
270.001
270.001
270.001
270
270
270
270
270
270
270
270
269.999
270
270
270
270
270
270
270
270
270
270
270
270.001
270.001
270
270
270
270
270
270
270
270
270
270
270
270
270
270
270
270
270
270
270
270
270
270
270
270
270
270
270
270
270
270
270
270
270
270
270
270
270
270
270
270
270
270
270
270
270
270
270
270
270
270
270
270
270
270
270
270
270
270
270
270
270
270
270
270
270
270
270
270
270
270
270
270
270
270
270
270
270
270
270
270
270
270
269.999
270.001
270.001
270
270
269.999
270
270.001
270.001
269.986
269.99
269.992
269.995
270.016
270.006
270.001
269.998
270.113
270.064
270.037
270.022
270.4
270.317
270.256
270.204
270.326
270.355
270.358
270.344
270.086
270.146
270.197
270.243
269.98
270.009
270.038
270.066
269.997
270.002
270.006
270.008
270.007
270.006
270.005
270.005
270.022
270.025
270.027
270.026
270.057
270.054
270.046
270.034
270.055
270.041
270.024
270.011
270.03
270.017
270.007
270.002
270.017
270.011
270.007
270.004
270.013
270.01
270.008
270.005
270.011
270.01
270.009
270.007
270.011
270.011
270.011
270.009
270.01
270.011
270.012
270.01
270.007
270.01
270.012
270.012
270.005
270.009
270.012
270.012
270.004
270.007
270.01
270.011
270.004
270.004
270.007
270.01
270.007
270.002
270.006
270.007
270.012
270
270.005
270.004
270.016
269.999
270.005
270.001
270.015
269.999
270.004
270
270.007
270.001
270.003
270
269.999
270.001
270.001
270
269.998
270.001
270
270
269.999
270
270
270
270
270
270
270
270
270
270
270
270
270
270
270
270
270
270
270
270
270
270
270
270
270
270
270
270
270
270
270
270
270
270
270
270
270
270
270
270
269.999
269.999
269.999
270
270
270.001
270.001
270.001
270.001
270.001
270.001
270
270
270
270
270
270
270
270
269.999
270
269.999
270
270
270.001
270.001
270.001
270.001
270.001
270.001
270
270
270
270
270
270
270
270.001
270
270
270
270
270
270
270.001
270.001
270.001
270.001
270.001
270
270
270
270
270
270
270
269.998
269.999
270
270
270
270
270
270.001
270.001
270.001
270.001
270
270.001
270
270
270
270
270
270
269.997
269.997
269.999
269.999
270
270
270
270
270.001
270.001
270.001
270.001
270
270
270
270
270
270
270
270.009
270
269.998
269.998
269.999
269.999
270
270
270
270.001
270.001
270.001
270.001
270
270
270
270
270
270
270.104
270.031
270.005
269.998
269.998
269.998
269.999
270
270
270.001
270.001
270.001
270
270
270
270
270
270
270
270.267
270.134
270.055
270.01
269.998
269.997
269.998
269.999
269.999
270
270.001
270.001
270
270
270
270
270
270
270
270.279
270.235
270.134
270.049
270.006
269.996
269.996
269.997
269.998
269.999
270
270.001
270
270
270
270
270
270.001
270
270.13
270.196
270.188
270.109
270.025
269.998
269.994
269.995
269.997
269.999
270
270.001
270
270
270
270
270
270
270
270.027
270.09
270.151
270.163
270.059
270.003
269.993
269.993
269.996
269.998
270
270
270
270
270
270
270
270
270
270.001
270.017
270.074
270.156
270.095
270.01
269.991
269.99
269.994
269.997
269.999
270
270
270
270
270
270
270
270
270.018
270.004
270.02
270.098
270.095
270.011
269.991
269.989
269.993
269.997
269.999
270
270
270
270
270
269.999
270
270
270.02
270.007
270.008
270.046
270.052
270.008
269.993
269.989
269.994
269.997
269.999
270
270
270
270
269.999
269.999
270
270
270.002
270.001
270.007
270.023
270.024
270.004
269.994
269.99
269.994
269.997
270
270
270
270
270
269.999
269.999
270
270
270
270.002
270.012
270.02
270.013
270.002
269.995
269.992
269.995
269.998
270
270
270
270
270
269.999
269.999
270
270
270.002
270
270.009
270.019
270.011
270.003
269.997
269.993
269.996
269.999
270
270
270
270
269.999
269.999
269.999
270
270
270.003
269.999
270.011
270.017
270.012
270.005
269.999
269.994
269.998
270
270
270
270
270
269.999
269.999
269.999
270
270
270.004
270
270.01
270.016
270.011
270.007
270
269.995
269.999
270
270.001
270.001
270
270
269.999
269.999
269.999
270
270
270.006
270.001
270.006
270.013
270.01
270.007
270
269.996
269.999
270
270.001
270.001
270
270
269.999
269.999
269.999
270
270
270.008
270.003
270.001
270.011
270.009
270.005
270
269.996
269.999
269.999
270
270.001
270
270
269.999
269.999
270
270
270
270.01
270.004
269.999
270.009
270.008
270.003
270.001
269.998
269.998
269.998
270
270
270
269.999
269.999
269.999
270
270
270
270.012
270.007
270
270.006
270.007
270.003
270
269.998
269.997
269.997
269.999
270
270
270
270
270
270
270
270
270.015
270.011
270.002
270
270.006
270.004
270
269.998
269.997
269.996
269.998
270
270
270
270
270
270
270
270
270.017
270.018
270.007
269.999
270.004
270.004
270.001
269.999
269.998
269.996
269.998
270
270
270
270
270
270
270
270
270.019
270.026
270.015
270
270.001
270.003
270.002
269.999
269.997
269.996
269.999
270
270
270
270
270
270
270
270
270.017
270.032
270.023
270.003
269.999
270
270.001
269.999
269.997
269.998
270
270
270
270.001
270.001
270
270
270
270
270.012
270.033
270.038
270.015
269.996
269.999
269.999
269.999
269.998
269.999
270
270
270.001
270.001
270.001
270
270
270
270
270.005
270.027
270.053
270.047
270.009
269.995
270
269.999
269.999
270
270.001
270.001
270.001
270.001
270.001
270
270
270
270
270.001
270.013
270.045
270.078
270.057
270
269.999
270
270
270.001
270.001
270.001
270.001
270.001
270.001
270
270
270
270
270
270.004
270.02
270.049
270.058
270.017
270
270.001
270.001
270.001
270.001
270.001
270.001
270.001
270
270
270
270
270
270
270.001
270.006
270.017
270.026
270.011
270.001
270.001
270.001
270.001
270.001
270.001
270.001
270
270
270
270
270
270
270
270
270.001
270.004
270.007
270.004
270.001
270.001
270.001
270.001
270.001
270.001
270.001
270
270
270
270
270
270
270
270
270.001
270.001
270.002
270.002
270.001
270.001
270.001
270.001
270.001
270.001
270.001
270
270
270
270.001
270.001
270
270
270
270.001
270.001
270.001
270.001
270.001
270.001
270.001
270.001
270.001
270.001
270.001
270.001
270.001
270.001
270.001
270.001
270
270
270
270
270.001
270.001
270.001
270.001
270.001
270.001
270.001
270.001
270.001
270.001
270.001
270.001
270.001
270.001
270.001
270
270
270
270
270
270.001
270.001
270.001
270.001
270.001
270.001
270.001
270.001
270.001
270.001
270.001
270.001
270.001
270.001
270
270
270
270
270
270
270
270.001
270.001
270.001
270.001
270.001
270.001
270.001
270.001
270.001
270.001
270.001
270.001
270.001
270
270
270
270
270
270
270
270.001
270.001
270.001
270.001
270.001
270.001
270.001
270.001
270.001
270.001
270.001
270.001
270
270
270
270
270
270
270
270
270.001
270.001
270.001
270.001
270.001
270.001
270.001
270.001
270.001
270.001
270.001
270
270
270
270
270
270
270
270
270.001
270.001
270.001
270.001
270.001
270.001
270.001
270.001
270.001
270.001
270.001
270
270
270
270
270
270
270
270
270
270
270
270
270.001
270.001
270.001
270.001
270.001
270.001
270
)
;

boundaryField
{
    leftWall
    {
        type            zeroGradient;
    }
    rightWall
    {
        type            zeroGradient;
    }
    lowerWall
    {
        type            zeroGradient;
    }
    atmosphere
    {
        type            zeroGradient;
    }
    defaultFaces
    {
        type            empty;
    }
}


// ************************************************************************* //
