/*--------------------------------*- C++ -*----------------------------------*\
| =========                 |                                                 |
| \\      /  F ield         | OpenFOAM: The Open Source CFD Toolbox           |
|  \\    /   O peration     | Version:  2.3.0                                 |
|   \\  /    A nd           | Web:      www.OpenFOAM.org                      |
|    \\/     M anipulation  |                                                 |
\*---------------------------------------------------------------------------*/
FoamFile
{
    version     2.0;
    format      ascii;
    class       volScalarField;
    location    "0.45";
    object      T;
}
// * * * * * * * * * * * * * * * * * * * * * * * * * * * * * * * * * * * * * //

dimensions      [0 0 0 1 0 0 0];

internalField   nonuniform List<scalar> 
2268
(
270
270
270
270
270
270
270
270
270
270
270
270
270
270
270
270
270
270
270
270
270
270
270
270
270
270
270
270
270
270
270
270
270
270
270
270
270
270
270
270
270
270
270
270
270
270
270
270
270
270
270
270
270
270
270
270
270
270
270
270
270
270
270
270
270
270
270
270
270
270
270
270
270
270
270
270
270
270
270
270
270
270
270
270
270
270
270
270
270
270
270
270
270
270
270
270
270
270
270
270
270
270
270
270
270
270
270
270
270
270
270
270
270
270
270
270
270
270
270
270
270
270
270
270
270
270
270
270
270
270
270
270
270
270
270
270
270
270
270
270
270
270
270
270
270
270
270
270.001
270.002
270.002
270.003
270.003
270.002
270.001
270
270
270
270
270
270
270
270
270
270
270
270
269.999
270.001
270.002
270.002
270.002
270.002
270.003
270.004
270.006
270.007
270.006
270.004
270.002
270
270
270
270
270
270
269.999
269.998
270.024
270.006
269.999
269.998
269.999
269.999
270.001
270.002
270.002
270.001
270
269.999
269.999
269.999
269.999
269.999
269.998
270.002
269.983
270.199
270.077
270.011
269.997
269.998
270
270.001
270.002
270.002
270
269.999
269.999
269.999
270
270
270
269.993
270.002
269.959
270.38
270.222
270.045
269.997
269.997
270
270.001
270.001
270.001
270
269.999
270
270
270
270
270
269.99
269.999
269.977
270.165
270.202
270.067
270.001
269.997
270
270.001
270.001
270.001
270.001
270
270.001
270
270
270
270
269.992
270.001
269.995
270.101
270.19
270.086
270.004
269.995
269.999
270.001
270.001
270.001
270.001
270.001
270
270
270
269.999
269.999
269.995
270.012
270.028
270.191
270.228
270.093
270.003
269.995
269.999
270.001
270.002
270.002
270.002
270.001
270
270
270
269.997
269.996
269.997
270.032
270.052
270.234
270.225
270.079
270.002
269.997
270.001
270.002
270.001
269.999
269.999
269.999
270
270
269.997
269.994
269.993
269.997
270.021
270.04
270.117
270.149
270.046
270.001
269.999
269.999
269.994
269.982
269.982
269.988
269.995
270
269.999
269.994
269.993
269.992
270
270
270
270
270
270
270.004
270.003
269.986
269.966
269.952
269.947
269.95
269.96
269.975
269.989
269.999
270.005
270.006
270.004
270.001
269.999
269.999
270
270
270
270
270
270.001
270.002
269.991
269.953
269.898
269.851
269.83
269.832
269.837
269.845
269.865
269.9
269.942
269.978
270
270.01
270.011
270.007
270
270
270.001
270.001
270.004
269.993
269.95
270.043
270.347
270.603
270.69
270.622
270.489
270.349
270.15
269.964
269.846
269.801
269.819
269.868
269.92
269.962
269.989
270.001
270.002
270.003
270.004
270.007
269.924
269.875
270.679
272.381
273.739
274.205
273.957
273.408
272.471
271.648
271.114
270.658
270.362
270.183
270.058
269.978
269.944
269.942
270.001
270.004
270.007
270.006
269.976
269.865
269.952
270.976
272.666
273.622
273.295
272.544
272.19
271.186
269.897
269.864
270.455
270.652
270.492
270.319
270.179
270.071
270.006
270
270.007
270.019
270.002
269.878
269.69
270.212
272.384
275.001
275.501
273.484
271.266
270.615
270.318
269.72
269.527
269.582
269.635
269.827
270.154
270.231
270.156
270.095
269.999
270.005
270.026
270
269.775
269.501
270.408
273.653
277.269
277.605
274.31
270.805
269.552
269.648
269.439
269.65
269.867
269.772
269.792
269.838
269.918
269.986
270.07
269.999
270.003
270.027
270.011
269.745
269.353
270.26
273.993
278.599
279.758
276.616
272.393
269.686
269.015
269.364
270.046
270.35
269.987
269.742
269.758
269.91
270.03
270.057
270
270.001
270.022
270.028
269.79
269.303
269.876
273.325
278.56
281.669
280.717
277.285
273.659
271.405
271.362
271.919
271.776
271.024
270.265
269.912
269.756
270.06
270.124
270
270
270.014
270.038
269.879
269.381
269.443
271.913
276.994
282.102
284.502
283.637
280.805
277.817
276.482
275.868
274.923
273.522
271.863
270.571
269.721
269.993
270.268
270
269.999
270.007
270.037
269.966
269.555
269.199
270.465
274.581
280.56
285.839
288.378
287.945
285.722
283.512
281.653
279.797
277.592
274.833
272.028
270.103
269.844
270.156
270
270
270.002
270.027
270.021
269.752
269.231
269.516
272.248
277.797
284.51
289.908
292.427
292.124
290.28
288.074
285.86
283.145
279.405
274.944
271.5
270.062
269.946
270
270
270
270.015
270.039
269.911
269.452
269.169
270.528
274.751
281.362
288.284
293.26
295.305
295.022
293.721
292.077
289.647
285.637
280.111
274.776
271.445
270.161
270
270
269.999
270.006
270.032
270.001
269.713
269.262
269.598
272.14
277.408
284.231
290.476
294.563
296.36
296.782
296.551
295.347
292.208
286.783
280.312
274.906
271.66
270
270
269.999
270.001
270.017
270.029
269.906
269.548
269.365
270.433
273.72
279.046
285.013
290.05
293.5
295.728
297.264
297.83
296.348
292.115
285.924
279.655
274.792
270
270
270
269.999
270.006
270.023
270
269.819
269.539
269.705
271.163
274.332
278.711
283.254
287.211
290.529
293.454
295.707
296.249
294.059
289.287
283.383
277.915
270
270
270
270
270
270.009
270.021
269.975
269.804
269.645
269.947
271.21
273.536
276.548
279.773
283.03
286.348
289.453
291.446
291.225
288.44
283.938
279.017
270
270.001
270.001
270
269.999
270.001
270.013
270.023
269.976
269.828
269.686
269.832
270.535
271.861
273.699
275.962
278.621
281.473
283.857
284.83
283.812
281.117
277.609
270
270.001
270.001
270.001
270
269.999
270.003
270.018
270.029
269.979
269.822
269.618
269.531
269.734
270.323
271.342
272.811
274.641
276.469
277.674
277.724
276.6
274.729
270.001
270.001
270.001
270.001
270.001
270
269.999
270.004
270.02
270.027
269.977
269.831
269.617
269.426
269.365
269.517
269.945
270.662
271.553
272.339
272.707
272.528
271.919
270.001
270.001
270.001
270.001
270.001
270.001
270
269.998
270.003
270.017
270.029
270.006
269.922
269.777
269.605
269.453
269.372
269.405
269.57
269.824
270.07
270.217
270.235
270.001
270.001
270.001
270.001
270.001
270.001
270.001
269.999
269.998
270.001
270.017
270.039
270.052
270.032
269.967
269.859
269.719
269.573
269.46
269.423
269.477
269.6
269.742
270.001
270
270.001
270.001
270.001
270.001
270.001
270.001
269.999
269.998
270
270.012
270.033
270.057
270.071
270.061
270.019
269.946
269.856
269.78
269.751
269.779
269.843
270.001
270
270
270.001
270.001
270.001
270.001
270.001
270.001
270
269.997
269.996
269.998
270.009
270.026
270.045
270.06
270.064
270.052
270.03
270.006
269.992
269.989
270.001
270
270
270
270
270
270.001
270.001
270.001
270.001
270
269.998
269.994
269.991
269.992
269.998
270.01
270.026
270.04
270.048
270.046
270.035
270.022
270
270
270
270
270
270
270
270
270
270
270.001
270.002
270.001
269.999
269.995
269.992
269.991
269.994
270
270.006
270.01
270.01
270.007
270
270
270
270
270
270
270
270
270
270
270
270.001
270.002
270.003
270.002
270
269.998
269.995
269.994
269.994
269.995
269.997
269.998
270
270
270
270
270
270
270
270
270
269.999
270
270
270
270.001
270.002
270.002
270.002
270.001
270
269.999
269.998
269.998
269.998
270
270.001
270.001
270
270
270
270
270
269.999
269.999
270
270
270
270
270
270
270.001
270.001
270.001
270.001
270
270
270
270
270.001
270.001
270.001
270
270
270
269.999
269.999
269.999
270
270
270
270
270
270
270
270
270
270
270
270
270
270
270.001
270.001
270.001
270
270
270
269.999
269.999
269.999
270
270
270
270
270
270
270
270
269.999
269.999
269.999
269.999
270
270.001
270.001
270.001
270.001
270.001
270
270
269.999
269.999
270
270
270
270
270
270
270
270
269.999
269.999
269.999
269.999
270
270
270.001
270.001
270.001
270.001
270.001
270
270
270
270
270
270
270
270
270
270
270
269.999
269.999
269.999
269.999
270
270
270
270.001
270.001
270.001
270.001
270
270
270
270
270
270
270
270
270
270
270
270
269.999
269.999
269.999
269.999
270
270
270
270.001
270.001
270.001
270.001
270
270
270
270
270
270
270
270
270
270
270
269.999
269.999
269.999
269.999
270
270
270
270
270.001
270
270.001
270
270
270
270
270
270
270
270
270
270
270
270
269.999
269.999
269.999
269.999
270
269.999
269.999
270
270
270.001
270
270
270
270
270
270
270
270
270
270
270
270
270
269.999
269.999
269.999
270
270
269.999
269.999
270
270.001
270.001
270
270
270
270
270
270
270
270
270
270
270
270
270
269.999
269.999
270
270
269.999
269.999
269.999
270
270.001
270.001
270
270
270
270
270
270
270
270
270
270
270
270
270
269.999
269.999
270
270
269.999
269.999
270
270
270.001
270
270
270
270
270
270
270
270
270
270
270.001
270
270
270
270
270
270
270
270
269.999
270
270
270.001
270
270
270
270
270
270
270
270
270
270
270.001
270
270
270
270
270
270
270
270
270
270
270
270.001
270
270
270
270
270
270
270
270
270
270
270
270
270
270
270
269.999
270
270
270
270
270
270
269.999
269.998
269.998
269.997
270.004
270.003
270.001
270
270.002
270.006
270.008
270.009
269.951
269.96
269.97
269.98
269.974
269.963
269.958
269.957
270.059
270.042
270.029
270.016
270.093
270.085
270.074
270.063
270.074
270.081
270.088
270.085
270.079
270.047
270.031
270.036
270.266
270.146
270.065
270.035
270.382
270.431
270.375
270.352
270.194
270.337
270.438
270.466
270.002
270.037
270.074
270.103
270.583
270.338
270.19
270.113
272.473
271.637
271.056
270.694
274.716
273.271
272.173
271.426
275.673
273.947
272.572
271.6
274.919
273.385
272.107
271.179
273.109
272.102
271.23
270.582
271.279
270.838
270.439
270.137
270.166
270.091
270.015
269.956
269.838
269.888
269.927
269.955
269.902
269.939
269.971
269.994
269.994
269.998
270.002
270.005
270.013
270.008
270.004
270.001
270.004
270.002
270
269.998
269.999
269.999
269.999
269.999
269.999
269.999
270
270
269.999
270
270
270
270
270
270
270
270
270
270
270
270
270
270
270
270
270
270
270
270
269.999
270
270
269.999
269.999
270
270
269.999
269.999
270
270
269.999
269.999
270
270
270
270
270
270
270
270
270
270
270
270
270
270.001
270
270
270.001
270.001
270
270
270.001
270.001
269.998
270.008
270.019
270.009
270.038
270.013
269.999
269.994
269.988
269.974
269.982
269.98
269.984
269.993
269.996
269.997
269.993
269.992
269.992
270.001
270.006
270.022
270.043
269.999
270.001
270.005
270.029
270.073
270.14
270.198
270.108
270.041
270.009
269.991
269.995
269.993
269.992
269.992
270.009
270.009
270.014
270.095
270.037
269.987
269.986
270.104
270.282
270.424
270.433
270.229
270.077
270.018
269.991
269.991
269.992
269.994
269.992
269.993
270.004
270.012
270.079
270.169
270.061
270.026
270.229
270.385
270.48
270.491
270.224
270.036
269.994
269.987
269.988
269.993
269.998
269.992
269.964
269.98
269.993
270.02
270.239
270.302
270.302
270.395
270.411
270.382
270.303
270.122
270.018
270.031
270.023
270.008
270.003
269.998
269.992
269.998
269.983
269.98
269.985
270.005
270.056
270.192
270.515
270.363
270.192
270.139
270.1
270.053
270.029
270.017
270.002
270
269.995
269.992
270.051
270.031
270.011
269.997
269.987
269.982
269.997
270.03
270.05
270.033
270.016
270.012
270.012
270.011
270.009
270.003
269.998
269.993
269.992
270.085
270.067
270.051
270.036
270.024
270.013
270.001
269.987
269.988
269.99
269.991
269.99
269.991
269.992
269.992
269.992
269.989
269.989
269.992
270.055
270.073
270.069
270.06
270.051
270.044
270.037
270.028
270.022
270.02
270.019
270.017
270.014
270.009
270.004
269.998
269.993
269.992
269.993
270.047
270.125
270.206
270.312
270.174
270.121
270.081
270.064
270.054
270.047
270.044
270.042
270.039
270.033
270.025
270.016
270.005
269.998
269.995
270.345
270.478
270.642
270.704
270.585
270.403
270.257
270.183
270.14
270.122
270.117
270.122
270.113
270.097
270.062
270.046
270.018
270.002
269.995
270.496
270.525
270.452
270.27
270.164
270.11
270.059
270.034
270.024
270.011
270.002
270.004
270.044
270.092
270.061
270.036
270.022
270.004
269.995
270.118
270.091
270.034
270
270.003
270.003
270.002
270.009
270.011
269.999
269.969
269.964
270.028
270.081
270.055
270.038
270.021
270.004
269.995
270.045
269.999
269.99
269.995
270.005
270.012
270.015
270.014
270.014
270.011
269.993
269.986
270.041
270.066
270.045
270.034
270.019
270.005
269.996
270.347
270.086
270.017
269.997
269.988
269.979
269.973
269.977
269.992
270.006
270.005
270.008
270.054
270.062
270.043
270.038
270.024
270.006
269.996
270.675
270.071
269.899
269.865
269.867
269.884
269.92
269.965
269.998
270.009
270.01
270.021
270.067
270.065
270.053
270.042
270.029
270.003
269.994
270.62
269.826
269.625
269.644
269.728
269.831
269.934
270.004
270.029
270.028
270.02
270.041
270.064
270.061
270.06
270.036
270.018
269.991
269.99
270.264
269.553
269.428
269.538
269.716
269.885
269.997
270.038
270.046
270.042
270.03
270.035
270.052
270.05
270.065
270.026
270.002
269.978
269.987
269.967
269.523
269.496
269.645
269.832
269.972
270.028
270.038
270.038
270.039
270.036
270.026
270.033
270.036
270.064
270.013
269.995
269.973
269.985
269.865
269.696
269.726
269.836
269.949
270.011
270.024
270.026
270.03
270.033
270.035
270.027
270.017
270.025
270.045
270.015
269.996
269.968
269.982
269.909
269.892
269.922
269.966
270
270.012
270.015
270.024
270.032
270.035
270.034
270.03
270.013
270.014
270.038
270.024
270.005
269.964
269.976
269.981
269.998
270.004
270.006
270.004
270.005
270.015
270.033
270.045
270.044
270.037
270.031
270.016
270.01
270.031
270.02
270.001
269.963
269.971
270.011
270.016
270.01
270.002
269.999
270.004
270.024
270.051
270.064
270.057
270.043
270.033
270.021
270.007
270.031
269.997
269.989
269.972
269.969
270.006
270.004
270
269.997
269.997
270.007
270.038
270.077
270.087
270.069
270.048
270.034
270.022
270.004
270.029
270.014
269.992
269.982
269.981
269.999
269.998
269.997
269.995
269.996
270.012
270.059
270.116
270.116
270.078
270.046
270.028
270.017
270.009
270.021
270.005
270.002
269.996
269.99
269.998
269.999
269.998
269.994
269.995
270.023
270.096
270.168
270.15
270.08
270.036
270.021
270.018
270.016
270.016
270.012
270.011
270.002
269.993
270
270
269.998
269.991
269.998
270.05
270.156
270.227
270.183
270.077
270.02
270.009
270.014
270.019
270.016
270.007
270.05
270.011
269.994
270.001
270.001
269.997
269.988
270.004
270.095
270.233
270.275
270.193
270.078
270.023
270.018
270.027
270.022
270.026
270.051
270.13
270.024
269.994
270.001
270.001
269.997
269.985
270.009
270.141
270.305
270.3
270.181
270.081
270.054
270.084
270.115
270.092
270.098
270.179
270.252
270.041
269.998
270.001
270.001
269.997
269.983
270.006
270.159
270.356
270.364
270.218
270.103
270.083
270.132
270.198
270.24
270.229
270.258
270.173
270.046
270.002
270
270.001
269.999
269.984
269.993
270.127
270.358
270.465
270.344
270.192
270.17
270.259
270.359
270.432
270.326
270.236
270.088
269.999
269.998
270
270.001
270.001
269.988
269.98
270.062
270.256
270.473
270.509
270.416
270.448
270.49
270.473
270.443
270.215
270.097
270.071
269.996
269.999
270
270.001
270.002
269.995
269.976
270.004
270.134
270.354
270.517
270.579
270.662
270.801
270.764
270.294
270.085
270.025
270.019
269.997
270
270
270
270.001
270.002
269.984
269.969
270.038
270.22
270.421
270.571
270.697
270.826
270.555
270.158
269.997
269.953
269.976
269.993
270.001
270
270
270
270.006
269.992
269.952
269.98
270.129
270.34
270.545
270.71
270.829
270.475
270.097
269.957
269.931
269.964
269.986
270.002
270
270
270
270.009
269.989
269.943
269.996
270.2
270.442
270.643
270.745
270.768
270.407
270.067
269.94
269.925
269.958
269.976
270.003
270
270
270
270.008
269.973
269.952
270.132
270.457
270.68
270.756
270.776
270.674
270.27
270.048
269.943
269.923
269.956
269.975
270.004
270
270
270.001
270.005
269.955
270.002
270.346
270.72
270.82
270.753
270.794
270.701
270.187
270.015
269.94
269.918
269.951
269.988
270.004
270
270
270.001
270.001
269.947
270.092
270.551
270.856
270.842
270.694
270.758
270.915
270.335
270.031
269.939
269.925
269.96
270.014
270.004
270
270
270.001
269.996
269.95
270.209
270.731
270.897
270.809
270.637
270.621
271.295
271.199
270.161
269.936
269.915
269.969
270.068
270.003
270
270
270.001
269.993
269.96
270.325
270.873
270.879
270.726
270.585
270.573
271.277
271.748
270.327
269.899
269.842
269.935
270.087
270.002
270
270
270.001
269.991
269.97
270.39
270.935
270.846
270.673
270.564
270.65
271.419
271.819
270.182
270.062
269.958
269.995
270.088
270.001
)
;

boundaryField
{
    leftWall
    {
        type            zeroGradient;
    }
    rightWall
    {
        type            zeroGradient;
    }
    lowerWall
    {
        type            zeroGradient;
    }
    atmosphere
    {
        type            zeroGradient;
    }
    defaultFaces
    {
        type            empty;
    }
}


// ************************************************************************* //
