/*--------------------------------*- C++ -*----------------------------------*\
| =========                 |                                                 |
| \\      /  F ield         | OpenFOAM: The Open Source CFD Toolbox           |
|  \\    /   O peration     | Version:  2.3.0                                 |
|   \\  /    A nd           | Web:      www.OpenFOAM.org                      |
|    \\/     M anipulation  |                                                 |
\*---------------------------------------------------------------------------*/
FoamFile
{
    version     2.0;
    format      ascii;
    class       volVectorField;
    location    "1";
    object      B;
}
// * * * * * * * * * * * * * * * * * * * * * * * * * * * * * * * * * * * * * //

dimensions      [1 0 -2 0 0 -1 0];

internalField   nonuniform List<vector> 
4000
(
(0.473661 20.031 0)
(0.499805 19.9956 0)
(0.486494 19.9897 0)
(0.492139 19.9903 0)
(0.491846 19.9918 0)
(0.493106 19.9936 0)
(0.493153 19.9951 0)
(0.493409 19.9962 0)
(0.493453 19.9971 0)
(0.493529 19.9978 0)
(0.49356 19.9983 0)
(0.493589 19.9987 0)
(0.493601 19.999 0)
(0.493607 19.9993 0)
(0.493606 19.9995 0)
(0.493601 19.9996 0)
(0.493593 19.9997 0)
(0.493583 19.9998 0)
(0.493573 19.9998 0)
(0.493563 19.9999 0)
(0.493553 19.9999 0)
(0.493545 19.9999 0)
(0.493537 20 0)
(0.493531 20 0)
(0.493526 20 0)
(0.493521 20 0)
(0.493518 20 0)
(0.493515 20 0)
(0.493513 20 0)
(0.493511 20 0)
(0.49351 20 0)
(0.493509 20 0)
(0.493508 20 0)
(0.493508 20 0)
(0.493507 20 0)
(0.493507 20 0)
(0.493507 20 0)
(0.493507 20 0)
(0.493507 20 0)
(0.493506 20 0)
(0.493506 20 0)
(0.493506 20 0)
(0.493506 20 0)
(0.493506 20 0)
(0.493506 20 0)
(0.493506 20 0)
(0.493506 20 0)
(0.493506 20 0)
(0.493506 20 0)
(0.493506 20 0)
(0.493506 20 0)
(0.493506 20 0)
(0.493506 20 0)
(0.493506 20 0)
(0.493506 20 0)
(0.493506 20 0)
(0.493506 20 0)
(0.493506 20 0)
(0.493506 20 0)
(0.493506 20 0)
(0.493506 20 0)
(0.493506 20 0)
(0.493506 20 0)
(0.493506 20 0)
(0.493506 20 0)
(0.493506 20 0)
(0.493506 20 0)
(0.493506 20 0)
(0.493506 20 0)
(0.493506 20 0)
(0.493506 20 0)
(0.493506 20 0)
(0.493506 20 0)
(0.493506 20 0)
(0.493506 20 0)
(0.493506 20 0)
(0.493506 20 0)
(0.493506 20 0)
(0.493506 20 0)
(0.493506 20 0)
(0.493506 20 0)
(0.493506 20 0)
(0.493506 20 0)
(0.493506 20 0)
(0.493506 20 0)
(0.493506 20 0)
(0.493506 20 0)
(0.493506 20 0)
(0.493506 20 0)
(0.493506 20 0)
(0.493506 20 0)
(0.493507 20 0)
(0.49351 20 0)
(0.493516 20 0)
(0.493527 20 0)
(0.493548 19.9999 0)
(0.49359 20 0)
(0.493595 20.0001 0)
(0.493551 20.0004 0)
(0.492788 20.0007 0)
(0.720702 20.0024 0)
(0.770276 19.9753 0)
(0.768888 19.969 0)
(0.779702 19.9717 0)
(0.780938 19.9767 0)
(0.783623 19.9821 0)
(0.784455 19.9864 0)
(0.785412 19.9898 0)
(0.785962 19.9924 0)
(0.78646 19.9944 0)
(0.786818 19.996 0)
(0.787109 19.9973 0)
(0.787327 19.9982 0)
(0.787494 19.999 0)
(0.787618 19.9995 0)
(0.787708 20 0)
(0.787772 20.0003 0)
(0.787816 20.0005 0)
(0.787846 20.0007 0)
(0.787865 20.0009 0)
(0.787877 20.001 0)
(0.787883 20.001 0)
(0.787886 20.0011 0)
(0.787888 20.0011 0)
(0.787887 20.0011 0)
(0.787887 20.0011 0)
(0.787886 20.0012 0)
(0.787884 20.0012 0)
(0.787883 20.0012 0)
(0.787882 20.0012 0)
(0.787882 20.0012 0)
(0.787881 20.0012 0)
(0.78788 20.0012 0)
(0.78788 20.0012 0)
(0.78788 20.0012 0)
(0.787879 20.0012 0)
(0.787879 20.0012 0)
(0.787879 20.0012 0)
(0.787879 20.0012 0)
(0.787879 20.0012 0)
(0.787879 20.0012 0)
(0.787879 20.0012 0)
(0.787879 20.0012 0)
(0.787879 20.0012 0)
(0.787879 20.0012 0)
(0.787879 20.0012 0)
(0.787879 20.0012 0)
(0.787879 20.0012 0)
(0.787879 20.0012 0)
(0.787879 20.0012 0)
(0.787879 20.0012 0)
(0.787879 20.0012 0)
(0.787879 20.0012 0)
(0.787879 20.0012 0)
(0.787879 20.0012 0)
(0.787879 20.0012 0)
(0.787879 20.0012 0)
(0.787879 20.0012 0)
(0.787879 20.0012 0)
(0.787879 20.0012 0)
(0.787879 20.0012 0)
(0.787879 20.0012 0)
(0.787879 20.0012 0)
(0.787879 20.0012 0)
(0.787879 20.0012 0)
(0.787879 20.0012 0)
(0.787879 20.0012 0)
(0.787879 20.0012 0)
(0.787879 20.0012 0)
(0.787879 20.0012 0)
(0.787879 20.0012 0)
(0.787879 20.0012 0)
(0.787879 20.0012 0)
(0.787879 20.0012 0)
(0.787879 20.0012 0)
(0.787879 20.0012 0)
(0.787879 20.0012 0)
(0.787879 20.0012 0)
(0.787879 20.0012 0)
(0.787879 20.0012 0)
(0.787879 20.0012 0)
(0.787879 20.0012 0)
(0.787879 20.0012 0)
(0.787879 20.0012 0)
(0.787879 20.0012 0)
(0.78788 20.0012 0)
(0.78788 20.0012 0)
(0.787882 20.0012 0)
(0.787884 20.0012 0)
(0.787887 20.0012 0)
(0.787893 20.0012 0)
(0.787902 20.0011 0)
(0.787918 20.0011 0)
(0.787945 20.0011 0)
(0.78799 20.001 0)
(0.788064 20.001 0)
(0.788193 20.0011 0)
(0.788336 20.0014 0)
(0.788456 20.0022 0)
(0.7874 20.0032 0)
(0.755203 19.9351 0)
(0.807989 19.9434 0)
(0.821252 19.9453 0)
(0.83573 19.9517 0)
(0.839001 19.9605 0)
(0.842786 19.9693 0)
(0.844493 19.9764 0)
(0.846139 19.982 0)
(0.847255 19.9864 0)
(0.848211 19.9898 0)
(0.84894 19.9925 0)
(0.849529 19.9945 0)
(0.849985 19.9961 0)
(0.850342 19.9974 0)
(0.850615 19.9983 0)
(0.850823 19.9991 0)
(0.850978 19.9996 0)
(0.851093 20 0)
(0.851177 20.0003 0)
(0.851238 20.0006 0)
(0.851281 20.0007 0)
(0.851311 20.0008 0)
(0.851332 20.0009 0)
(0.851346 20.001 0)
(0.851355 20.001 0)
(0.851361 20.0011 0)
(0.851365 20.0011 0)
(0.851368 20.0011 0)
(0.851369 20.0011 0)
(0.85137 20.0011 0)
(0.85137 20.0011 0)
(0.851371 20.0011 0)
(0.851371 20.0011 0)
(0.851371 20.0011 0)
(0.851371 20.0011 0)
(0.851371 20.0011 0)
(0.851371 20.0011 0)
(0.851371 20.0011 0)
(0.851371 20.0011 0)
(0.851371 20.0011 0)
(0.851371 20.0011 0)
(0.851371 20.0011 0)
(0.851371 20.0011 0)
(0.851371 20.0011 0)
(0.851371 20.0011 0)
(0.851371 20.0011 0)
(0.851371 20.0011 0)
(0.851371 20.0011 0)
(0.851371 20.0011 0)
(0.851371 20.0011 0)
(0.851371 20.0011 0)
(0.851371 20.0011 0)
(0.851371 20.0011 0)
(0.851371 20.0011 0)
(0.851371 20.0011 0)
(0.851371 20.0011 0)
(0.851371 20.0011 0)
(0.851371 20.0011 0)
(0.851371 20.0011 0)
(0.851371 20.0011 0)
(0.851371 20.0011 0)
(0.851371 20.0011 0)
(0.851371 20.0011 0)
(0.851371 20.0011 0)
(0.851371 20.0011 0)
(0.851371 20.0011 0)
(0.851371 20.0011 0)
(0.851371 20.0011 0)
(0.851371 20.0011 0)
(0.851371 20.0011 0)
(0.851371 20.0011 0)
(0.851371 20.0011 0)
(0.851371 20.0011 0)
(0.851371 20.0011 0)
(0.851371 20.0011 0)
(0.851371 20.0011 0)
(0.851371 20.0011 0)
(0.851371 20.0011 0)
(0.851371 20.0011 0)
(0.851371 20.0011 0)
(0.851371 20.0011 0)
(0.851371 20.0011 0)
(0.851371 20.0011 0)
(0.851372 20.0011 0)
(0.851372 20.0011 0)
(0.851374 20.0011 0)
(0.851375 20.0011 0)
(0.851378 20.0011 0)
(0.851383 20.0011 0)
(0.851391 20.0011 0)
(0.851403 20.0011 0)
(0.851422 20.001 0)
(0.851452 20.001 0)
(0.851503 20.0009 0)
(0.851585 20.0009 0)
(0.851721 20.0008 0)
(0.851955 20.0009 0)
(0.852309 20.0014 0)
(0.852784 20.0026 0)
(0.852462 20.0042 0)
(0.726909 19.8691 0)
(0.774748 19.9063 0)
(0.798086 19.9196 0)
(0.815312 19.9312 0)
(0.820592 19.9442 0)
(0.825325 19.9564 0)
(0.827837 19.9662 0)
(0.830094 19.9741 0)
(0.831729 19.9802 0)
(0.833102 19.9849 0)
(0.834173 19.9886 0)
(0.835038 19.9915 0)
(0.835716 19.9938 0)
(0.836251 19.9955 0)
(0.836665 19.9969 0)
(0.836985 19.9979 0)
(0.837227 19.9987 0)
(0.837411 19.9992 0)
(0.837547 19.9997 0)
(0.837648 20 0)
(0.837722 20.0002 0)
(0.837776 20.0004 0)
(0.837814 20.0005 0)
(0.837841 20.0006 0)
(0.83786 20.0007 0)
(0.837874 20.0007 0)
(0.837883 20.0007 0)
(0.83789 20.0007 0)
(0.837894 20.0008 0)
(0.837897 20.0008 0)
(0.837899 20.0008 0)
(0.8379 20.0008 0)
(0.837901 20.0008 0)
(0.837902 20.0008 0)
(0.837902 20.0008 0)
(0.837902 20.0008 0)
(0.837902 20.0008 0)
(0.837902 20.0008 0)
(0.837903 20.0008 0)
(0.837903 20.0008 0)
(0.837903 20.0008 0)
(0.837903 20.0008 0)
(0.837903 20.0008 0)
(0.837903 20.0008 0)
(0.837903 20.0008 0)
(0.837903 20.0008 0)
(0.837903 20.0008 0)
(0.837903 20.0008 0)
(0.837903 20.0008 0)
(0.837903 20.0008 0)
(0.837903 20.0008 0)
(0.837903 20.0008 0)
(0.837903 20.0008 0)
(0.837903 20.0008 0)
(0.837903 20.0008 0)
(0.837903 20.0008 0)
(0.837903 20.0008 0)
(0.837903 20.0008 0)
(0.837903 20.0008 0)
(0.837903 20.0008 0)
(0.837903 20.0008 0)
(0.837903 20.0008 0)
(0.837903 20.0008 0)
(0.837903 20.0008 0)
(0.837903 20.0008 0)
(0.837903 20.0008 0)
(0.837903 20.0008 0)
(0.837903 20.0008 0)
(0.837903 20.0008 0)
(0.837903 20.0008 0)
(0.837903 20.0008 0)
(0.837903 20.0008 0)
(0.837903 20.0008 0)
(0.837903 20.0008 0)
(0.837903 20.0008 0)
(0.837903 20.0008 0)
(0.837903 20.0008 0)
(0.837903 20.0008 0)
(0.837903 20.0008 0)
(0.837903 20.0008 0)
(0.837903 20.0008 0)
(0.837903 20.0008 0)
(0.837904 20.0008 0)
(0.837905 20.0008 0)
(0.837906 20.0008 0)
(0.837908 20.0008 0)
(0.837911 20.0008 0)
(0.837915 20.0008 0)
(0.837922 20.0008 0)
(0.837934 20.0007 0)
(0.837952 20.0007 0)
(0.83798 20.0007 0)
(0.838025 20.0006 0)
(0.838099 20.0005 0)
(0.838219 20.0005 0)
(0.838422 20.0004 0)
(0.838775 20.0005 0)
(0.839379 20.001 0)
(0.84031 20.0024 0)
(0.84116 20.0043 0)
(0.681468 19.8132 0)
(0.722124 19.868 0)
(0.75111 19.8931 0)
(0.770226 19.911 0)
(0.777259 19.9284 0)
(0.782798 19.9439 0)
(0.786002 19.9564 0)
(0.788773 19.9664 0)
(0.790845 19.9741 0)
(0.792571 19.9802 0)
(0.793933 19.985 0)
(0.795033 19.9887 0)
(0.795901 19.9916 0)
(0.796588 19.9939 0)
(0.797124 19.9956 0)
(0.797539 19.9969 0)
(0.797857 19.9979 0)
(0.7981 19.9986 0)
(0.798282 19.9992 0)
(0.798419 19.9996 0)
(0.79852 19.9999 0)
(0.798594 20.0001 0)
(0.798648 20.0003 0)
(0.798687 20.0004 0)
(0.798715 20.0005 0)
(0.798735 20.0005 0)
(0.798749 20.0006 0)
(0.798759 20.0006 0)
(0.798766 20.0006 0)
(0.798771 20.0006 0)
(0.798774 20.0006 0)
(0.798776 20.0006 0)
(0.798778 20.0006 0)
(0.798779 20.0007 0)
(0.79878 20.0007 0)
(0.79878 20.0007 0)
(0.798781 20.0007 0)
(0.798781 20.0007 0)
(0.798781 20.0007 0)
(0.798781 20.0007 0)
(0.798781 20.0007 0)
(0.798781 20.0007 0)
(0.798781 20.0007 0)
(0.798781 20.0007 0)
(0.798781 20.0007 0)
(0.798781 20.0007 0)
(0.798781 20.0007 0)
(0.798781 20.0007 0)
(0.798781 20.0007 0)
(0.798781 20.0007 0)
(0.798781 20.0007 0)
(0.798781 20.0007 0)
(0.798781 20.0007 0)
(0.798781 20.0007 0)
(0.798781 20.0007 0)
(0.798781 20.0007 0)
(0.798781 20.0007 0)
(0.798781 20.0007 0)
(0.798781 20.0007 0)
(0.798781 20.0007 0)
(0.798781 20.0007 0)
(0.798781 20.0007 0)
(0.798781 20.0007 0)
(0.798781 20.0007 0)
(0.798781 20.0007 0)
(0.798781 20.0007 0)
(0.798781 20.0007 0)
(0.798781 20.0007 0)
(0.798781 20.0007 0)
(0.798781 20.0007 0)
(0.798781 20.0007 0)
(0.798781 20.0007 0)
(0.798781 20.0007 0)
(0.798781 20.0007 0)
(0.798781 20.0007 0)
(0.798781 20.0007 0)
(0.798781 20.0007 0)
(0.798781 20.0007 0)
(0.798782 20.0007 0)
(0.798782 20.0007 0)
(0.798782 20.0007 0)
(0.798782 20.0007 0)
(0.798783 20.0007 0)
(0.798784 20.0007 0)
(0.798786 20.0006 0)
(0.798788 20.0006 0)
(0.798792 20.0006 0)
(0.798798 20.0006 0)
(0.798807 20.0006 0)
(0.798822 20.0006 0)
(0.798846 20.0006 0)
(0.798882 20.0005 0)
(0.798941 20.0004 0)
(0.799037 20.0003 0)
(0.799194 20.0002 0)
(0.799466 20.0001 0)
(0.799942 20.0002 0)
(0.800809 20.0006 0)
(0.802212 20.002 0)
(0.804218 20.0039 0)
(0.632569 19.766 0)
(0.666151 19.8307 0)
(0.697576 19.8664 0)
(0.717767 19.891 0)
(0.726196 19.913 0)
(0.732383 19.9317 0)
(0.73615 19.9469 0)
(0.739329 19.9589 0)
(0.741751 19.9683 0)
(0.743759 19.9757 0)
(0.745353 19.9815 0)
(0.746642 19.986 0)
(0.747664 19.9896 0)
(0.748473 19.9923 0)
(0.749107 19.9944 0)
(0.7496 19.996 0)
(0.74998 19.9972 0)
(0.75027 19.9981 0)
(0.75049 19.9988 0)
(0.750656 19.9993 0)
(0.750779 19.9997 0)
(0.75087 20 0)
(0.750937 20.0002 0)
(0.750986 20.0003 0)
(0.751022 20.0004 0)
(0.751047 20.0005 0)
(0.751065 20.0005 0)
(0.751078 20.0006 0)
(0.751088 20.0006 0)
(0.751094 20.0006 0)
(0.751099 20.0006 0)
(0.751102 20.0006 0)
(0.751104 20.0006 0)
(0.751105 20.0006 0)
(0.751107 20.0006 0)
(0.751107 20.0006 0)
(0.751108 20.0006 0)
(0.751108 20.0006 0)
(0.751108 20.0006 0)
(0.751108 20.0006 0)
(0.751109 20.0006 0)
(0.751109 20.0006 0)
(0.751109 20.0006 0)
(0.751109 20.0006 0)
(0.751109 20.0006 0)
(0.751109 20.0006 0)
(0.751109 20.0006 0)
(0.751109 20.0006 0)
(0.751109 20.0006 0)
(0.751109 20.0006 0)
(0.751109 20.0006 0)
(0.751109 20.0006 0)
(0.751109 20.0006 0)
(0.751109 20.0006 0)
(0.751109 20.0006 0)
(0.751109 20.0006 0)
(0.751109 20.0006 0)
(0.751109 20.0006 0)
(0.751109 20.0006 0)
(0.751109 20.0006 0)
(0.751109 20.0006 0)
(0.751109 20.0006 0)
(0.751109 20.0006 0)
(0.751109 20.0006 0)
(0.751109 20.0006 0)
(0.751109 20.0006 0)
(0.751109 20.0006 0)
(0.751109 20.0006 0)
(0.751109 20.0006 0)
(0.751109 20.0006 0)
(0.751109 20.0006 0)
(0.751109 20.0006 0)
(0.751109 20.0006 0)
(0.751109 20.0006 0)
(0.751109 20.0006 0)
(0.751109 20.0006 0)
(0.751109 20.0006 0)
(0.751109 20.0006 0)
(0.751109 20.0006 0)
(0.751109 20.0006 0)
(0.75111 20.0006 0)
(0.75111 20.0006 0)
(0.751111 20.0006 0)
(0.751112 20.0006 0)
(0.751114 20.0006 0)
(0.751117 20.0006 0)
(0.751122 20.0006 0)
(0.751129 20.0006 0)
(0.75114 20.0006 0)
(0.751158 20.0006 0)
(0.751186 20.0005 0)
(0.75123 20.0005 0)
(0.7513 20.0004 0)
(0.751416 20.0002 0)
(0.751609 20.0001 0)
(0.751947 19.9999 0)
(0.752543 19.9999 0)
(0.753663 20.0002 0)
(0.755503 20.0015 0)
(0.758456 20.0032 0)
(0.584067 19.7258 0)
(0.611452 19.7952 0)
(0.643156 19.8402 0)
(0.663701 19.8715 0)
(0.673136 19.8981 0)
(0.679794 19.92 0)
(0.683989 19.9377 0)
(0.687471 19.9517 0)
(0.690153 19.9627 0)
(0.692371 19.9714 0)
(0.694141 19.9781 0)
(0.695571 19.9834 0)
(0.696709 19.9876 0)
(0.697611 19.9908 0)
(0.69832 19.9933 0)
(0.698872 19.9951 0)
(0.699298 19.9966 0)
(0.699626 19.9977 0)
(0.699874 19.9985 0)
(0.700062 19.9991 0)
(0.700203 19.9995 0)
(0.700307 19.9998 0)
(0.700384 20.0001 0)
(0.700441 20.0002 0)
(0.700482 20.0004 0)
(0.700512 20.0004 0)
(0.700534 20.0005 0)
(0.700549 20.0005 0)
(0.70056 20.0006 0)
(0.700568 20.0006 0)
(0.700573 20.0006 0)
(0.700577 20.0006 0)
(0.70058 20.0006 0)
(0.700582 20.0006 0)
(0.700583 20.0006 0)
(0.700584 20.0006 0)
(0.700585 20.0006 0)
(0.700585 20.0006 0)
(0.700585 20.0006 0)
(0.700585 20.0006 0)
(0.700586 20.0006 0)
(0.700586 20.0006 0)
(0.700586 20.0006 0)
(0.700586 20.0006 0)
(0.700586 20.0006 0)
(0.700586 20.0006 0)
(0.700586 20.0006 0)
(0.700586 20.0006 0)
(0.700586 20.0006 0)
(0.700586 20.0006 0)
(0.700586 20.0006 0)
(0.700586 20.0006 0)
(0.700586 20.0006 0)
(0.700586 20.0006 0)
(0.700586 20.0006 0)
(0.700586 20.0006 0)
(0.700586 20.0006 0)
(0.700586 20.0006 0)
(0.700586 20.0006 0)
(0.700586 20.0006 0)
(0.700586 20.0006 0)
(0.700586 20.0006 0)
(0.700586 20.0006 0)
(0.700586 20.0006 0)
(0.700586 20.0006 0)
(0.700586 20.0006 0)
(0.700586 20.0006 0)
(0.700586 20.0006 0)
(0.700586 20.0006 0)
(0.700586 20.0006 0)
(0.700586 20.0006 0)
(0.700586 20.0006 0)
(0.700586 20.0006 0)
(0.700586 20.0006 0)
(0.700586 20.0006 0)
(0.700586 20.0006 0)
(0.700586 20.0006 0)
(0.700586 20.0006 0)
(0.700586 20.0006 0)
(0.700587 20.0006 0)
(0.700587 20.0006 0)
(0.700588 20.0006 0)
(0.700588 20.0006 0)
(0.70059 20.0006 0)
(0.700592 20.0006 0)
(0.700596 20.0006 0)
(0.700601 20.0006 0)
(0.700609 20.0006 0)
(0.700622 20.0006 0)
(0.700642 20.0005 0)
(0.700673 20.0005 0)
(0.700723 20.0004 0)
(0.700804 20.0003 0)
(0.700937 20.0001 0)
(0.701162 20 0)
(0.70156 19.9997 0)
(0.702268 19.9996 0)
(0.703614 19.9998 0)
(0.705821 20.0007 0)
(0.709477 20.002 0)
(0.536813 19.6912 0)
(0.559017 19.7622 0)
(0.589625 19.8149 0)
(0.609919 19.8527 0)
(0.619973 19.8837 0)
(0.62692 19.9087 0)
(0.631407 19.9288 0)
(0.635089 19.9447 0)
(0.637946 19.9573 0)
(0.640304 19.9671 0)
(0.642191 19.9749 0)
(0.643718 19.9809 0)
(0.644934 19.9856 0)
(0.6459 19.9893 0)
(0.64666 19.9921 0)
(0.647253 19.9943 0)
(0.647712 19.9959 0)
(0.648065 19.9972 0)
(0.648334 19.9981 0)
(0.648537 19.9988 0)
(0.64869 19.9993 0)
(0.648804 19.9997 0)
(0.648889 20 0)
(0.648951 20.0002 0)
(0.648997 20.0003 0)
(0.64903 20.0004 0)
(0.649054 20.0005 0)
(0.649071 20.0005 0)
(0.649083 20.0005 0)
(0.649092 20.0006 0)
(0.649098 20.0006 0)
(0.649103 20.0006 0)
(0.649106 20.0006 0)
(0.649108 20.0006 0)
(0.649109 20.0006 0)
(0.649111 20.0006 0)
(0.649111 20.0006 0)
(0.649112 20.0006 0)
(0.649112 20.0006 0)
(0.649112 20.0006 0)
(0.649113 20.0006 0)
(0.649113 20.0006 0)
(0.649113 20.0006 0)
(0.649113 20.0006 0)
(0.649113 20.0006 0)
(0.649113 20.0006 0)
(0.649113 20.0006 0)
(0.649113 20.0006 0)
(0.649113 20.0006 0)
(0.649113 20.0006 0)
(0.649113 20.0006 0)
(0.649113 20.0006 0)
(0.649113 20.0006 0)
(0.649113 20.0006 0)
(0.649113 20.0006 0)
(0.649113 20.0006 0)
(0.649113 20.0006 0)
(0.649113 20.0006 0)
(0.649113 20.0006 0)
(0.649113 20.0006 0)
(0.649113 20.0006 0)
(0.649113 20.0006 0)
(0.649113 20.0006 0)
(0.649113 20.0006 0)
(0.649113 20.0006 0)
(0.649113 20.0006 0)
(0.649113 20.0006 0)
(0.649113 20.0006 0)
(0.649113 20.0006 0)
(0.649113 20.0006 0)
(0.649113 20.0006 0)
(0.649113 20.0006 0)
(0.649113 20.0006 0)
(0.649113 20.0006 0)
(0.649113 20.0006 0)
(0.649113 20.0006 0)
(0.649113 20.0006 0)
(0.649113 20.0006 0)
(0.649113 20.0006 0)
(0.649114 20.0006 0)
(0.649114 20.0006 0)
(0.649115 20.0006 0)
(0.649116 20.0006 0)
(0.649117 20.0006 0)
(0.64912 20.0006 0)
(0.649123 20.0006 0)
(0.649129 20.0006 0)
(0.649138 20.0006 0)
(0.649152 20.0005 0)
(0.649174 20.0005 0)
(0.649208 20.0005 0)
(0.649263 20.0004 0)
(0.649351 20.0002 0)
(0.649499 20.0001 0)
(0.64975 19.9998 0)
(0.650201 19.9995 0)
(0.651003 19.9993 0)
(0.652538 19.9992 0)
(0.65503 19.9997 0)
(0.659156 20.0005 0)
(0.490795 19.6615 0)
(0.508756 19.732 0)
(0.537435 19.791 0)
(0.557 19.8348 0)
(0.567314 19.87 0)
(0.574369 19.898 0)
(0.579017 19.9204 0)
(0.582799 19.9381 0)
(0.585748 19.9521 0)
(0.588179 19.9631 0)
(0.59013 19.9717 0)
(0.591709 19.9785 0)
(0.592969 19.9838 0)
(0.59397 19.9879 0)
(0.594759 19.9911 0)
(0.595375 19.9935 0)
(0.595853 19.9953 0)
(0.596221 19.9967 0)
(0.596502 19.9978 0)
(0.596715 19.9986 0)
(0.596875 19.9991 0)
(0.596995 19.9996 0)
(0.597084 19.9999 0)
(0.59715 20.0001 0)
(0.597198 20.0002 0)
(0.597234 20.0004 0)
(0.597259 20.0004 0)
(0.597278 20.0005 0)
(0.597291 20.0005 0)
(0.5973 20.0006 0)
(0.597307 20.0006 0)
(0.597312 20.0006 0)
(0.597315 20.0006 0)
(0.597318 20.0006 0)
(0.597319 20.0006 0)
(0.597321 20.0006 0)
(0.597321 20.0006 0)
(0.597322 20.0006 0)
(0.597322 20.0006 0)
(0.597323 20.0006 0)
(0.597323 20.0006 0)
(0.597323 20.0006 0)
(0.597323 20.0006 0)
(0.597323 20.0006 0)
(0.597323 20.0006 0)
(0.597323 20.0006 0)
(0.597323 20.0006 0)
(0.597323 20.0006 0)
(0.597323 20.0006 0)
(0.597323 20.0006 0)
(0.597323 20.0006 0)
(0.597323 20.0006 0)
(0.597323 20.0006 0)
(0.597323 20.0006 0)
(0.597323 20.0006 0)
(0.597323 20.0006 0)
(0.597323 20.0006 0)
(0.597323 20.0006 0)
(0.597323 20.0006 0)
(0.597323 20.0006 0)
(0.597323 20.0006 0)
(0.597323 20.0006 0)
(0.597323 20.0006 0)
(0.597323 20.0006 0)
(0.597323 20.0006 0)
(0.597323 20.0006 0)
(0.597323 20.0006 0)
(0.597323 20.0006 0)
(0.597323 20.0006 0)
(0.597323 20.0006 0)
(0.597323 20.0006 0)
(0.597323 20.0006 0)
(0.597323 20.0006 0)
(0.597323 20.0006 0)
(0.597323 20.0006 0)
(0.597323 20.0006 0)
(0.597324 20.0006 0)
(0.597324 20.0006 0)
(0.597324 20.0006 0)
(0.597324 20.0006 0)
(0.597325 20.0006 0)
(0.597325 20.0006 0)
(0.597326 20.0006 0)
(0.597328 20.0006 0)
(0.59733 20.0006 0)
(0.597334 20.0006 0)
(0.59734 20.0006 0)
(0.59735 20.0006 0)
(0.597365 20.0005 0)
(0.597387 20.0005 0)
(0.597423 20.0004 0)
(0.597481 20.0003 0)
(0.597575 20.0002 0)
(0.597734 20 0)
(0.598006 19.9997 0)
(0.598498 19.9993 0)
(0.599374 19.9989 0)
(0.60105 19.9985 0)
(0.603737 19.9986 0)
(0.608131 19.9988 0)
(0.445804 19.6358 0)
(0.460317 19.7046 0)
(0.486601 19.7686 0)
(0.505072 19.8179 0)
(0.515329 19.8571 0)
(0.52232 19.8879 0)
(0.527002 19.9124 0)
(0.530789 19.9318 0)
(0.533754 19.9471 0)
(0.536195 19.9592 0)
(0.538158 19.9688 0)
(0.539747 19.9762 0)
(0.541017 19.982 0)
(0.542028 19.9865 0)
(0.542824 19.99 0)
(0.543447 19.9927 0)
(0.543931 19.9947 0)
(0.544303 19.9963 0)
(0.544588 19.9974 0)
(0.544805 19.9983 0)
(0.544968 19.9989 0)
(0.54509 19.9994 0)
(0.545181 19.9998 0)
(0.545249 20 0)
(0.545298 20.0002 0)
(0.545335 20.0003 0)
(0.545361 20.0004 0)
(0.54538 20.0005 0)
(0.545394 20.0005 0)
(0.545404 20.0005 0)
(0.545411 20.0006 0)
(0.545416 20.0006 0)
(0.54542 20.0006 0)
(0.545422 20.0006 0)
(0.545424 20.0006 0)
(0.545425 20.0006 0)
(0.545426 20.0006 0)
(0.545427 20.0006 0)
(0.545427 20.0006 0)
(0.545427 20.0006 0)
(0.545428 20.0006 0)
(0.545428 20.0006 0)
(0.545428 20.0006 0)
(0.545428 20.0006 0)
(0.545428 20.0006 0)
(0.545428 20.0006 0)
(0.545428 20.0006 0)
(0.545428 20.0006 0)
(0.545428 20.0006 0)
(0.545428 20.0006 0)
(0.545428 20.0006 0)
(0.545428 20.0006 0)
(0.545428 20.0006 0)
(0.545428 20.0006 0)
(0.545428 20.0006 0)
(0.545428 20.0006 0)
(0.545428 20.0006 0)
(0.545428 20.0006 0)
(0.545428 20.0006 0)
(0.545428 20.0006 0)
(0.545428 20.0006 0)
(0.545428 20.0006 0)
(0.545428 20.0006 0)
(0.545428 20.0006 0)
(0.545428 20.0006 0)
(0.545428 20.0006 0)
(0.545428 20.0006 0)
(0.545428 20.0006 0)
(0.545428 20.0006 0)
(0.545428 20.0006 0)
(0.545428 20.0006 0)
(0.545428 20.0006 0)
(0.545428 20.0006 0)
(0.545428 20.0006 0)
(0.545428 20.0006 0)
(0.545428 20.0006 0)
(0.545428 20.0006 0)
(0.545428 20.0006 0)
(0.545429 20.0006 0)
(0.545429 20.0006 0)
(0.545429 20.0006 0)
(0.54543 20.0006 0)
(0.545431 20.0006 0)
(0.545433 20.0006 0)
(0.545435 20.0006 0)
(0.545439 20.0006 0)
(0.545446 20.0006 0)
(0.545455 20.0005 0)
(0.54547 20.0005 0)
(0.545494 20.0005 0)
(0.54553 20.0004 0)
(0.54559 20.0003 0)
(0.545687 20.0001 0)
(0.545853 19.9999 0)
(0.546139 19.9995 0)
(0.546659 19.9991 0)
(0.547584 19.9985 0)
(0.54935 19.9978 0)
(0.552142 19.9973 0)
(0.556627 19.997 0)
(0.401629 19.6136 0)
(0.413342 19.6802 0)
(0.436999 19.748 0)
(0.454108 19.8022 0)
(0.464035 19.845 0)
(0.470804 19.8785 0)
(0.475402 19.905 0)
(0.479105 19.926 0)
(0.482014 19.9426 0)
(0.484407 19.9556 0)
(0.486333 19.966 0)
(0.487895 19.9741 0)
(0.489144 19.9804 0)
(0.490138 19.9853 0)
(0.490922 19.9891 0)
(0.491536 19.992 0)
(0.492013 19.9942 0)
(0.492381 19.9959 0)
(0.492663 19.9971 0)
(0.492877 19.9981 0)
(0.493039 19.9988 0)
(0.49316 19.9993 0)
(0.493251 19.9997 0)
(0.493318 19.9999 0)
(0.493367 20.0001 0)
(0.493403 20.0003 0)
(0.49343 20.0004 0)
(0.493449 20.0004 0)
(0.493463 20.0005 0)
(0.493473 20.0005 0)
(0.49348 20.0005 0)
(0.493485 20.0006 0)
(0.493489 20.0006 0)
(0.493491 20.0006 0)
(0.493493 20.0006 0)
(0.493495 20.0006 0)
(0.493496 20.0006 0)
(0.493496 20.0006 0)
(0.493497 20.0006 0)
(0.493497 20.0006 0)
(0.493497 20.0006 0)
(0.493497 20.0006 0)
(0.493497 20.0006 0)
(0.493497 20.0006 0)
(0.493497 20.0006 0)
(0.493498 20.0006 0)
(0.493498 20.0006 0)
(0.493498 20.0006 0)
(0.493498 20.0006 0)
(0.493498 20.0006 0)
(0.493498 20.0006 0)
(0.493498 20.0006 0)
(0.493498 20.0006 0)
(0.493498 20.0006 0)
(0.493498 20.0006 0)
(0.493498 20.0006 0)
(0.493498 20.0006 0)
(0.493498 20.0006 0)
(0.493498 20.0006 0)
(0.493498 20.0006 0)
(0.493498 20.0006 0)
(0.493498 20.0006 0)
(0.493498 20.0006 0)
(0.493498 20.0006 0)
(0.493498 20.0006 0)
(0.493498 20.0006 0)
(0.493498 20.0006 0)
(0.493498 20.0006 0)
(0.493498 20.0006 0)
(0.493498 20.0006 0)
(0.493498 20.0006 0)
(0.493498 20.0006 0)
(0.493498 20.0006 0)
(0.493498 20.0006 0)
(0.493498 20.0006 0)
(0.493498 20.0006 0)
(0.493498 20.0006 0)
(0.493498 20.0006 0)
(0.493498 20.0006 0)
(0.493498 20.0006 0)
(0.493499 20.0006 0)
(0.4935 20.0006 0)
(0.493501 20.0006 0)
(0.493502 20.0006 0)
(0.493505 20.0006 0)
(0.493509 20.0006 0)
(0.493515 20.0006 0)
(0.493525 20.0005 0)
(0.49354 20.0005 0)
(0.493563 20.0004 0)
(0.4936 20.0004 0)
(0.493659 20.0002 0)
(0.493757 20.0001 0)
(0.493926 19.9998 0)
(0.494218 19.9994 0)
(0.494751 19.9988 0)
(0.4957 19.998 0)
(0.497499 19.9971 0)
(0.50031 19.996 0)
(0.504738 19.995 0)
(0.35809 19.5945 0)
(0.367525 19.6585 0)
(0.388469 19.7293 0)
(0.404026 19.7878 0)
(0.413395 19.834 0)
(0.4198 19.8698 0)
(0.424205 19.8982 0)
(0.427743 19.9206 0)
(0.43053 19.9383 0)
(0.43282 19.9523 0)
(0.434667 19.9634 0)
(0.436164 19.9721 0)
(0.437363 19.9788 0)
(0.438318 19.9841 0)
(0.439071 19.9882 0)
(0.439662 19.9913 0)
(0.440121 19.9937 0)
(0.440475 19.9955 0)
(0.440747 19.9968 0)
(0.440953 19.9978 0)
(0.44111 19.9986 0)
(0.441227 19.9992 0)
(0.441315 19.9996 0)
(0.44138 19.9999 0)
(0.441428 20.0001 0)
(0.441463 20.0002 0)
(0.441489 20.0003 0)
(0.441508 20.0004 0)
(0.441521 20.0005 0)
(0.441531 20.0005 0)
(0.441538 20.0005 0)
(0.441543 20.0006 0)
(0.441547 20.0006 0)
(0.441549 20.0006 0)
(0.441551 20.0006 0)
(0.441552 20.0006 0)
(0.441553 20.0006 0)
(0.441554 20.0006 0)
(0.441554 20.0006 0)
(0.441555 20.0006 0)
(0.441555 20.0006 0)
(0.441555 20.0006 0)
(0.441555 20.0006 0)
(0.441555 20.0006 0)
(0.441555 20.0006 0)
(0.441555 20.0006 0)
(0.441555 20.0006 0)
(0.441555 20.0006 0)
(0.441555 20.0006 0)
(0.441555 20.0006 0)
(0.441555 20.0006 0)
(0.441555 20.0006 0)
(0.441555 20.0006 0)
(0.441555 20.0006 0)
(0.441556 20.0006 0)
(0.441556 20.0006 0)
(0.441556 20.0006 0)
(0.441556 20.0006 0)
(0.441556 20.0006 0)
(0.441556 20.0006 0)
(0.441556 20.0006 0)
(0.441555 20.0006 0)
(0.441555 20.0006 0)
(0.441555 20.0006 0)
(0.441555 20.0006 0)
(0.441555 20.0006 0)
(0.441555 20.0006 0)
(0.441555 20.0006 0)
(0.441555 20.0006 0)
(0.441555 20.0006 0)
(0.441556 20.0006 0)
(0.441556 20.0006 0)
(0.441556 20.0006 0)
(0.441556 20.0006 0)
(0.441556 20.0006 0)
(0.441556 20.0006 0)
(0.441556 20.0006 0)
(0.441556 20.0006 0)
(0.441556 20.0006 0)
(0.441556 20.0006 0)
(0.441557 20.0006 0)
(0.441557 20.0006 0)
(0.441558 20.0006 0)
(0.44156 20.0006 0)
(0.441563 20.0006 0)
(0.441566 20.0006 0)
(0.441572 20.0006 0)
(0.441582 20.0005 0)
(0.441596 20.0005 0)
(0.441619 20.0004 0)
(0.441655 20.0003 0)
(0.441713 20.0002 0)
(0.441809 20 0)
(0.441976 19.9997 0)
(0.442266 19.9992 0)
(0.442798 19.9986 0)
(0.443741 19.9976 0)
(0.445521 19.9963 0)
(0.448267 19.9946 0)
(0.452513 19.9931 0)
(0.315048 19.578 0)
(0.322618 19.6396 0)
(0.340853 19.7126 0)
(0.354728 19.7748 0)
(0.36335 19.8239 0)
(0.369268 19.862 0)
(0.373383 19.892 0)
(0.376682 19.9157 0)
(0.379286 19.9345 0)
(0.381425 19.9493 0)
(0.383152 19.961 0)
(0.384552 19.9702 0)
(0.385674 19.9774 0)
(0.386569 19.983 0)
(0.387274 19.9873 0)
(0.387828 19.9907 0)
(0.388259 19.9932 0)
(0.388591 19.9951 0)
(0.388846 19.9966 0)
(0.389041 19.9976 0)
(0.389188 19.9984 0)
(0.389298 19.999 0)
(0.389381 19.9995 0)
(0.389443 19.9998 0)
(0.389488 20 0)
(0.389521 20.0002 0)
(0.389546 20.0003 0)
(0.389564 20.0004 0)
(0.389577 20.0005 0)
(0.389586 20.0005 0)
(0.389593 20.0005 0)
(0.389598 20.0005 0)
(0.389601 20.0006 0)
(0.389603 20.0006 0)
(0.389605 20.0006 0)
(0.389606 20.0006 0)
(0.389607 20.0006 0)
(0.389608 20.0006 0)
(0.389608 20.0006 0)
(0.389609 20.0006 0)
(0.389609 20.0006 0)
(0.389609 20.0006 0)
(0.389609 20.0006 0)
(0.389609 20.0006 0)
(0.389609 20.0006 0)
(0.389609 20.0006 0)
(0.389609 20.0006 0)
(0.389609 20.0006 0)
(0.389609 20.0006 0)
(0.389609 20.0006 0)
(0.389609 20.0006 0)
(0.389609 20.0006 0)
(0.389609 20.0006 0)
(0.389609 20.0006 0)
(0.389609 20.0006 0)
(0.389609 20.0006 0)
(0.389609 20.0006 0)
(0.389609 20.0006 0)
(0.389609 20.0006 0)
(0.389609 20.0006 0)
(0.389609 20.0006 0)
(0.389609 20.0006 0)
(0.389609 20.0006 0)
(0.389609 20.0006 0)
(0.389609 20.0006 0)
(0.389609 20.0006 0)
(0.389609 20.0006 0)
(0.389609 20.0006 0)
(0.389609 20.0006 0)
(0.389609 20.0006 0)
(0.389609 20.0006 0)
(0.389609 20.0006 0)
(0.389609 20.0006 0)
(0.389609 20.0006 0)
(0.38961 20.0006 0)
(0.38961 20.0006 0)
(0.38961 20.0006 0)
(0.38961 20.0006 0)
(0.38961 20.0006 0)
(0.38961 20.0006 0)
(0.389611 20.0006 0)
(0.389611 20.0006 0)
(0.389612 20.0006 0)
(0.389614 20.0006 0)
(0.389616 20.0006 0)
(0.38962 20.0006 0)
(0.389625 20.0005 0)
(0.389634 20.0005 0)
(0.389648 20.0005 0)
(0.389669 20.0004 0)
(0.389703 20.0003 0)
(0.389759 20.0002 0)
(0.389851 19.9999 0)
(0.390011 19.9996 0)
(0.390291 19.9991 0)
(0.390806 19.9983 0)
(0.391715 19.9972 0)
(0.393423 19.9955 0)
(0.39603 19.9933 0)
(0.399991 19.9913 0)
(0.272395 19.564 0)
(0.278425 19.6232 0)
(0.294002 19.698 0)
(0.306111 19.7634 0)
(0.313834 19.815 0)
(0.31916 19.855 0)
(0.322898 19.8865 0)
(0.325892 19.9113 0)
(0.32826 19.931 0)
(0.330204 19.9466 0)
(0.331775 19.9589 0)
(0.333049 19.9686 0)
(0.334071 19.9762 0)
(0.334885 19.9821 0)
(0.335529 19.9866 0)
(0.336033 19.9901 0)
(0.336426 19.9928 0)
(0.33673 19.9948 0)
(0.336963 19.9963 0)
(0.33714 19.9975 0)
(0.337275 19.9983 0)
(0.337376 19.9989 0)
(0.337452 19.9994 0)
(0.337508 19.9997 0)
(0.33755 20 0)
(0.337581 20.0002 0)
(0.337603 20.0003 0)
(0.33762 20.0004 0)
(0.337632 20.0004 0)
(0.33764 20.0005 0)
(0.337647 20.0005 0)
(0.337651 20.0005 0)
(0.337654 20.0006 0)
(0.337656 20.0006 0)
(0.337658 20.0006 0)
(0.337659 20.0006 0)
(0.33766 20.0006 0)
(0.337661 20.0006 0)
(0.337661 20.0006 0)
(0.337661 20.0006 0)
(0.337662 20.0006 0)
(0.337662 20.0006 0)
(0.337662 20.0006 0)
(0.337662 20.0006 0)
(0.337662 20.0006 0)
(0.337662 20.0006 0)
(0.337662 20.0006 0)
(0.337662 20.0006 0)
(0.337662 20.0006 0)
(0.337662 20.0006 0)
(0.337662 20.0006 0)
(0.337662 20.0006 0)
(0.337662 20.0006 0)
(0.337662 20.0006 0)
(0.337662 20.0006 0)
(0.337662 20.0006 0)
(0.337662 20.0006 0)
(0.337662 20.0006 0)
(0.337662 20.0006 0)
(0.337662 20.0006 0)
(0.337662 20.0006 0)
(0.337662 20.0006 0)
(0.337662 20.0006 0)
(0.337662 20.0006 0)
(0.337662 20.0006 0)
(0.337662 20.0006 0)
(0.337662 20.0006 0)
(0.337662 20.0006 0)
(0.337662 20.0006 0)
(0.337662 20.0006 0)
(0.337662 20.0006 0)
(0.337662 20.0006 0)
(0.337662 20.0006 0)
(0.337662 20.0006 0)
(0.337662 20.0006 0)
(0.337662 20.0006 0)
(0.337662 20.0006 0)
(0.337662 20.0006 0)
(0.337662 20.0006 0)
(0.337663 20.0006 0)
(0.337663 20.0006 0)
(0.337664 20.0006 0)
(0.337665 20.0006 0)
(0.337666 20.0006 0)
(0.337668 20.0006 0)
(0.337672 20.0006 0)
(0.337677 20.0005 0)
(0.337685 20.0005 0)
(0.337697 20.0005 0)
(0.337717 20.0004 0)
(0.337748 20.0003 0)
(0.3378 20.0001 0)
(0.337885 19.9999 0)
(0.338035 19.9995 0)
(0.338297 19.999 0)
(0.338778 19.9981 0)
(0.339628 19.9968 0)
(0.341215 19.9948 0)
(0.343614 19.9921 0)
(0.347204 19.9896 0)
(0.230046 19.5523 0)
(0.234787 19.6094 0)
(0.247783 19.6854 0)
(0.258072 19.7534 0)
(0.264778 19.8073 0)
(0.269424 19.8489 0)
(0.27271 19.8817 0)
(0.275341 19.9075 0)
(0.277426 19.928 0)
(0.279137 19.9443 0)
(0.28052 19.9571 0)
(0.281643 19.9672 0)
(0.282543 19.9751 0)
(0.283261 19.9812 0)
(0.283829 19.9859 0)
(0.284274 19.9896 0)