/*--------------------------------*- C++ -*----------------------------------*\
| =========                 |                                                 |
| \\      /  F ield         | OpenFOAM: The Open Source CFD Toolbox           |
|  \\    /   O peration     | Version:  2.3.0                                 |
|   \\  /    A nd           | Web:      www.OpenFOAM.org                      |
|    \\/     M anipulation  |                                                 |
\*---------------------------------------------------------------------------*/
FoamFile
{
    version     2.0;
    format      ascii;
    class       volScalarField;
    location    "1";
    object      p;
}
// * * * * * * * * * * * * * * * * * * * * * * * * * * * * * * * * * * * * * //

dimensions      [0 2 -2 0 0 0 0];

internalField   nonuniform List<scalar> 
4000
(
426.869
413.632
409.576
404.302
399.62
394.836
390.239
385.701
381.254
376.862
372.521
368.219
363.948
359.702
355.477
351.267
347.07
342.883
338.703
334.53
330.361
326.195
322.032
317.87
313.711
309.552
305.394
301.237
297.08
292.923
288.767
284.611
280.454
276.298
272.142
267.986
263.83
259.675
255.519
251.363
247.207
243.051
238.895
234.739
230.583
226.428
222.272
218.116
213.96
209.804
205.648
201.492
197.336
193.181
189.025
184.869
180.713
176.557
172.401
168.246
164.09
159.934
155.778
151.622
147.466
143.31
139.155
134.999
130.843
126.687
122.531
118.375
114.22
110.064
105.908
101.752
97.5962
93.4404
89.2845
85.1287
80.9729
76.8171
72.6614
68.5056
64.3499
60.1943
56.0387
51.8834
47.7282
43.5735
39.4192
35.2658
31.1137
26.9633
22.8156
18.6711
14.5311
10.3928
6.27113
2.14859
424.422
413.542
409.426
404.114
399.431
394.644
390.047
385.509
381.061
376.668
372.327
368.024
363.754
359.508
355.282
351.073
346.875
342.688
338.508
334.335
330.165
326
321.836
317.675
313.515
309.357
305.199
301.041
296.884
292.728
288.571
284.415
280.259
276.103
271.947
267.791
263.635
259.479
255.323
251.167
247.012
242.856
238.7
234.544
230.388
226.232
222.076
217.921
213.765
209.609
205.453
201.297
197.141
192.985
188.829
184.674
180.518
176.362
172.206
168.05
163.894
159.739
155.583
151.427
147.271
143.115
138.959
134.803
130.648
126.492
122.336
118.18
114.024
109.868
105.713
101.557
97.4009
93.2451
89.0892
84.9334
80.7776
76.6218
72.4661
68.3103
64.1546
59.999
55.8434
51.6881
47.5329
43.3782
39.2239
35.0705
30.9184
26.768
22.6203
18.4758
14.3359
10.1981
6.07776
1.96697
423.14
413.538
409.379
404.035
399.352
394.561
389.965
385.425
380.977
376.583
372.242
367.939
363.668
359.422
355.196
350.986
346.789
342.601
338.422
334.248
330.079
325.913
321.75
317.588
313.428
309.27
305.112
300.954
296.798
292.641
288.485
284.328
280.172
276.016
271.86
267.704
263.548
259.392
255.236
251.081
246.925
242.769
238.613
234.457
230.301
226.145
221.989
217.834
213.678
209.522
205.366
201.21
197.054
192.898
188.743
184.587
180.431
176.275
172.119
167.963
163.807
159.652
155.496
151.34
147.184
143.028
138.872
134.717
130.561
126.405
122.249
118.093
113.937
109.781
105.626
101.47
97.314
93.1581
89.0023
84.8465
80.6907
76.5349
72.3791
68.2234
64.0677
59.912
55.7565
51.6011
47.446
43.2912
39.137
34.9836
30.8314
26.681
22.5333
18.3888
14.249
10.1114
5.99163
1.88584
422.621
413.63
409.416
404.052
399.369
394.574
389.977
385.436
380.988
376.594
372.252
367.948
363.677
359.431
355.205
350.995
346.798
342.61
338.43
334.256
330.087
325.921
321.758
317.597
313.437
309.278
305.12
300.963
296.806
292.649
288.493
284.337
280.181
276.025
271.869
267.713
263.557
259.401
255.245
251.089
246.933
242.777
238.621
234.465
230.31
226.154
221.998
217.842
213.686
209.53
205.374
201.219
197.063
192.907
188.751
184.595
180.439
176.283
172.128
167.972
163.816
159.66
155.504
151.348
147.193
143.037
138.881
134.725
130.569
126.413
122.257
118.102
113.946
109.79
105.634
101.478
97.3224
93.1665
89.0107
84.8549
80.6991
76.5433
72.3875
68.2318
64.0761
59.9205
55.7649
51.6095
47.4544
43.2996
39.1454
34.992
30.8398
26.6894
22.5416
18.3971
14.2574
10.1201
5.99924
1.89065
422.283
413.741
409.48
404.099
399.412
394.613
390.016
385.474
381.026
376.631
372.289
367.986
363.714
359.468
355.242
351.032
346.834
342.647
338.467
334.293
330.124
325.958
321.794
317.633
313.473
309.315
305.157
300.999
296.842
292.686
288.529
284.373
280.217
276.061
271.905
267.749
263.593
259.437
255.281
251.125
246.969
242.814
238.658
234.502
230.346
226.19
222.034
217.878
213.723
209.567
205.411
201.255
197.099
192.943
188.787
184.631
180.476
176.32
172.164
168.008
163.852
159.696
155.541
151.385
147.229
143.073
138.917
134.761
130.606
126.45
122.294
118.138
113.982
109.826
105.67
101.515
97.3588
93.2029
89.0471
84.8913
80.7355
76.5797
72.4239
68.2682
64.1125
59.9569
55.8013
51.6459
47.4908
43.336
39.1818
35.0283
30.8761
26.7257
22.5779
18.4335
14.2939
10.1564
6.03461
1.92168
421.978
413.837
409.547
404.148
399.457
394.654
390.058
385.515
381.066
376.671
372.329
368.025
363.753
359.507
355.28
351.07
346.873
342.685
338.505
334.331
330.162
325.996
321.833
317.671
313.512
309.353
305.195
301.038
296.881
292.724
288.568
284.411
280.255
276.099
271.943
267.787
263.631
259.475
255.32
251.164
247.008
242.852
238.696
234.54
230.384
226.229
222.073
217.917
213.761
209.605
205.449
201.293
197.137
192.982
188.826
184.67
180.514
176.358
172.202
168.046
163.891
159.735
155.579
151.423
147.267
143.111
138.956
134.8
130.644
126.488
122.332
118.176
114.02
109.865
105.709
101.553
97.3971
93.2413
89.0855
84.9297
80.7739
76.6181
72.4623
68.3066
64.1509
59.9952
55.8397
51.6843
47.5292
43.3744
39.2201
35.0667
30.9145
26.764
22.6162
18.4718
14.3322
10.1952
6.07232
1.95495
421.707
413.914
409.611
404.197
399.5
394.693
390.097
385.553
381.104
376.709
372.367
368.062
363.79
359.544
355.317
351.107
346.91
342.722
338.542
334.368
330.199
326.033
321.869
317.708
313.548
309.39
305.232
301.074
296.917
292.761
288.604
284.448
280.292
276.136
271.98
267.824
263.668
259.512
255.356
251.2
247.044
242.889
238.733
234.577
230.421
226.265
222.109
217.953
213.798
209.642
205.486
201.33
197.174
193.018
188.862
184.707
180.551
176.395
172.239
168.083
163.927
159.771
155.616
151.46
147.304
143.148
138.992
134.836
130.681
126.525
122.369
118.213
114.057
109.901
105.745
101.59
97.4338
93.278
89.1222
84.9663
80.8105
76.6547
72.499
68.3432
64.1875
60.0319
55.8763
51.721
47.5658
43.411
39.2568
35.1033
30.9511
26.8006
22.6528
18.5085
14.369
10.2325
6.10816
1.98636
421.472
413.978
409.67
404.243
399.54
394.729
390.133
385.589
381.14
376.745
372.402
368.098
363.826
359.579
355.352
351.142
346.944
342.757
338.577
334.403
330.233
326.067
321.904
317.743
313.583
309.424
305.266
301.109
296.952
292.795
288.639
284.483
280.327
276.171
272.015
267.859
263.703
259.547
255.391
251.235
247.079
242.923
238.767
234.612
230.456
226.3
222.144
217.988
213.832
209.676
205.521
201.365
197.209
193.053
188.897
184.741
180.585
176.429
172.274
168.118
163.962
159.806
155.65
151.494
147.339
143.183
139.027
134.871
130.715
126.559
122.404
118.248
114.092
109.936
105.78
101.624
97.4685
93.3127
89.1568
85.001
80.8452
76.6894
72.5336
68.3779
64.2222
60.0666
55.911
51.7556
47.6005
43.4457
39.2914
35.138
30.9857
26.8353
22.6874
18.5432
14.4038
10.2678
6.14193
2.01577
421.267
414.03
409.725
404.286
399.577
394.763
390.167
385.623
381.174
376.778
372.435
368.131
363.858
359.611
355.385
351.175
346.977
342.789
338.609
334.435
330.266
326.1
321.936
317.775
313.615
309.457
305.299
301.141
296.984
292.828
288.671
284.515
280.359
276.203
272.047
267.891
263.735
259.579
255.423
251.267
247.111
242.956
238.8
234.644
230.488
226.332
222.176
218.02
213.865
209.709
205.553
201.397
197.241
193.085
188.929
184.773
180.618
176.462
172.306
168.15
163.994
159.838
155.683
151.527
147.371
143.215
139.059
134.903
130.748
126.592
122.436
118.28
114.124
109.968
105.812
101.657
97.5008
93.3449
89.1891
85.0333
80.8775
76.7217
72.5659
68.4102
64.2545
60.0988
55.9433
51.7879
47.6328
43.478
39.3237
35.1702
31.018
26.8675
22.7197
18.5755
14.4361
10.3009
6.17339
2.04301
421.088
414.072
409.775
404.327
399.611
394.793
390.198
385.653
381.204
376.808
372.465
368.161
363.888
359.641
355.415
351.204
347.007
342.819
338.639
334.465
330.295
326.129
321.966
317.805
313.645
309.486
305.328
301.171
297.014
292.857
288.701
284.545
280.389
276.233
272.077
267.921
263.765
259.609
255.453
251.297
247.141
242.985
238.829
234.674
230.518
226.362
222.206
218.05
213.894
209.738
205.582
201.427
197.271
193.115
188.959
184.803
180.647
176.491
172.336
168.18
164.024
159.868
155.712
151.556
147.401
143.245
139.089
134.933
130.777
126.621
122.465
118.31
114.154
109.998
105.842
101.686
97.5304
93.3746
89.2188
85.063
80.9072
76.7514
72.5956
68.4398
64.2841
60.1285
55.973
51.8176
47.6624
43.5076
39.3533
35.1999
31.0476
26.8972
22.7493
18.6052
14.4659
10.3314
6.20233
2.06795
420.931
414.105
409.821
404.364
399.642
394.821
390.226
385.681
381.232
376.836
372.493
368.188
363.916
359.669
355.442
351.232
347.034
342.846
338.666
334.492
330.322
326.156
321.993
317.832
313.672
309.513
305.355
301.198
297.041
292.884
288.728
284.572
280.416
276.26
272.104
267.948
263.792
259.636
255.48
251.324
247.168
243.012
238.856
234.7
230.545
226.389
222.233
218.077
213.921
209.765
205.609
201.454
197.298
193.142
188.986
184.83
180.674
176.518
172.363
168.207
164.051
159.895
155.739
151.583
147.428
143.272
139.116
134.96
130.804
126.648
122.492
118.337
114.181
110.025
105.869
101.713
97.5574
93.4016
89.2458
85.09
80.9341
76.7784
72.6226
68.4668
64.3111
60.1555
55.9999
51.8446
47.6894
43.5346
39.3803
35.2269
31.0746
26.9241
22.7763
18.6322
14.4929
10.3592
6.22867
2.09054
420.796
414.132
409.861
404.398
399.669
394.846
390.251
385.706
381.257
376.861
372.518
368.213
363.94
359.693
355.466
351.256
347.058
342.87
338.69
334.516
330.347
326.181
322.017
317.856
313.696
309.537
305.38
301.222
297.065
292.909
288.752
284.596
280.44
276.284
272.128
267.972
263.816
259.66
255.504
251.348
247.192
243.037
238.881
234.725
230.569
226.413
222.257
218.101
213.945
209.79
205.634
201.478
197.322
193.166
189.01
184.854
180.699
176.543
172.387
168.231
164.075
159.919
155.764
151.608
147.452
143.296
139.14
134.984
130.828
126.673
122.517
118.361
114.205
110.049
105.893
101.738
97.5817
93.4259
89.2701
85.1142
80.9584
76.8026
72.6469
68.4911
64.3354
60.1798
56.0242
51.8688
47.7137
43.5589
39.4046
35.2511
31.0988
26.9484
22.8005
18.6565
14.5173
10.3844
6.25241
2.11082
420.679
414.153
409.897
404.429
399.694
394.868
390.273
385.728
381.279
376.883
372.54
368.235
363.962
359.715
355.488
351.278
347.08
342.892
338.712
334.538
330.368
326.202
322.039
317.878
313.718
309.559
305.401
301.244
297.087
292.93
288.774
284.618
280.461
276.305
272.149
267.993
263.838
259.682
255.526
251.37
247.214
243.058
238.902
234.746
230.591
226.435
222.279
218.123
213.967
209.811
205.655
201.499
197.344
193.188
189.032
184.876
180.72
176.564
172.408
168.253
164.097
159.941
155.785
151.629
147.473
143.318
139.162
135.006
130.85
126.694
122.538
118.382
114.227
110.071
105.915
101.759
97.6033
93.4475
89.2916
85.1358
80.98
76.8242
72.6684
68.5127
64.357
60.2013
56.0458
51.8904
47.7353
43.5805
39.4262
35.2727
31.1204
26.97
22.8221
18.6781
14.5389
10.4068
6.27353
2.1288
420.58
414.17
409.928
404.456
399.715
394.887
390.293
385.747
381.298
376.902
372.559
368.254
363.981
359.734
355.507
351.297
347.099
342.911
338.731
334.557
330.387
326.221
322.058
317.897
313.737
309.578
305.42
301.263
297.106
292.949
288.793
284.636
280.48
276.324
272.168
268.012
263.856
259.701
255.545
251.389
247.233
243.077
238.921
234.765
230.609
226.454
222.298
218.142
213.986
209.83
205.674
201.518
197.362
193.207
189.051
184.895
180.739
176.583
172.427
168.272
164.116
159.96
155.804
151.648
147.492
143.336
139.181
135.025
130.869
126.713
122.557
118.401
114.246
110.09
105.934
101.778
97.6222
93.4663
89.3105
85.1547
80.9989
76.8431
72.6873
68.5316
64.3759
60.2202
56.0647
51.9093
47.7541
43.5993
39.4451
35.2916
31.1393
26.9888
22.8409
18.6971
14.5579
10.4265
6.29203
2.1445
420.497
414.183
409.955
404.479
399.733
394.904
390.309
385.764
381.315
376.918
372.575
368.27
363.998
359.75
355.523
351.313
347.115
342.927
338.747
334.573
330.403
326.237
322.074
317.913
313.753
309.594
305.436
301.279
297.122
292.965
288.809
284.653
280.497
276.34
272.185
268.029
263.873
259.717
255.561
251.405
247.249
243.093
238.937
234.781
230.626
226.47
222.314
218.158
214.002
209.846
205.69
201.535
197.379
193.223
189.067
184.911
180.755
176.599
172.444
168.288
164.132
159.976
155.82
151.664
147.509
143.353
139.197
135.041
130.885
126.729
122.573
118.418
114.262
110.106
105.95
101.794
97.6384
93.4825
89.3267
85.1709
81.0151
76.8593
72.7035
68.5478
64.3921
60.2364
56.0809
51.9255
47.7703
43.6155
39.4612
35.3078
31.1555
27.005
22.8571
18.7133
14.5741
10.4434
6.3079
2.15794
420.43
414.193
409.976
404.498
399.748
394.917
390.323
385.777
381.329
376.932
372.589
368.284
364.011
359.764
355.537
351.326
347.128
342.941
338.76
334.586
330.417
326.251
322.088
317.926
313.766
309.608
305.45
301.292
297.135
292.979
288.822
284.666
280.51
276.354
272.198
268.042
263.886
259.73
255.574
251.418
247.263
243.107
238.951
234.795
230.639
226.483
222.327
218.171
214.016
209.86
205.704
201.548
197.392
193.236
189.08
184.925
180.769
176.613
172.457
168.301
164.145
159.99
155.834
151.678
147.522
143.366
139.21
135.054
130.899
126.743
122.587
118.431
114.275
110.119
105.964
101.808
97.6519
93.496
89.3402
85.1844
81.0286
76.8728
72.717
68.5613
64.4056
60.2499
56.0944
51.939
47.7838
43.629
39.4747
35.3213
31.169
27.0185
22.8706
18.7268
14.5877
10.4575
6.32114
2.16912
420.376
414.2
409.994
404.514
399.76
394.928
390.334
385.788
381.34
376.943
372.6
368.295
364.022
359.775
355.548
351.337
347.139
342.951
338.771
334.597
330.428
326.262
322.098
317.937
313.777
309.618
305.46
301.303
297.146
292.99
288.833
284.677
280.521
276.365
272.209
268.053
263.897
259.741
255.585
251.429
247.273
243.117
238.962
234.806
230.65
226.494
222.338
218.182
214.026
209.871
205.715
201.559
197.403
193.247
189.091
184.935
180.78
176.624
172.468
168.312
164.156
160
155.844
151.689
147.533
143.377
139.221
135.065
130.909
126.754
122.598
118.442
114.286
110.13
105.974
101.818
97.6627
93.5068
89.351
85.1952
81.0394
76.8836
72.7278
68.5721
64.4163
60.2607
56.1052
51.9498
47.7946
43.6398
39.4855
35.3321
31.1798
27.0293
22.8813
18.7377
14.5985
10.4689
6.33173
2.17806
420.337
414.205
410.007
404.526
399.77
394.936
390.342
385.796
381.348
376.951
372.608
368.303
364.03
359.783
355.556
351.345
347.147
342.959
338.779
334.605
330.436
326.27
322.106
317.945
313.785
309.626
305.469
301.311
297.154
292.998
288.841
284.685
280.529
276.373
272.217
268.061
263.905
259.749
255.593
251.437
247.281
243.126
238.97
234.814
230.658
226.502
222.346
218.19
214.034
209.879
205.723
201.567
197.411
193.255
189.099
184.943
180.788
176.632
172.476
168.32
164.164
160.008
155.853
151.697
147.541
143.385
139.229
135.073
130.918
126.762
122.606
118.45
114.294
110.138
105.982
101.827
97.6708
93.5149
89.3591
85.2033
81.0475
76.8917
72.7359
68.5802
64.4244
60.2688
56.1133
51.9579
47.8027
43.6479
39.4936
35.3401
31.1878
27.0374
22.8894
18.7458
14.6066
10.4774
6.33969
2.18476
420.311
414.209
410.015
404.534
399.776
394.942
390.347
385.802
381.353
376.957
372.614
368.308
364.036
359.788
355.561
351.351
347.153
342.965
338.785
334.611
330.441
326.275
322.112
317.95
313.791
309.632
305.474
301.317
297.16
293.003
288.847
284.69
280.534
276.378
272.222
268.066
263.91
259.754
255.599
251.443
247.287
243.131
238.975
234.819
230.663
226.507
222.352
218.196
214.04
209.884
205.728
201.572
197.416
193.261
189.105
184.949
180.793
176.637
172.481
168.325
164.17
160.014
155.858
151.702
147.546
143.39
139.235
135.079
130.923
126.767
122.611
118.455
114.3
110.144
105.988
101.832
97.6762
93.5203
89.3645
85.2087
81.0529
76.8971
72.7413
68.5855
64.4298
60.2742
56.1187
51.9633
47.8081
43.6533
39.499
35.3455
31.1932
27.0428
22.8948
18.7512
14.6121
10.483
6.34499
2.18922
420.298
414.21
410.02
404.538
399.779
394.944
390.35
385.804
381.356
376.96
372.616
368.311
364.038
359.791
355.564
351.353
347.155
342.968
338.787
334.613
330.444
326.278
322.114
317.953
313.793
309.635
305.477
301.319
297.162
293.006
288.849
284.693
280.537
276.381
272.225
268.069
263.913
259.757
255.601
251.445
247.29
243.134
238.978
234.822
230.666
226.51
222.354
218.198
214.043
209.887
205.731
201.575
197.419
193.263
189.107
184.952
180.796
176.64
172.484
168.328
164.172
160.016
155.861
151.705
147.549
143.393
139.237
135.081
130.926
126.77
122.614
118.458
114.302
110.146
105.991
101.835
97.6788
93.523
89.3672
85.2114
81.0556
76.8998
72.744
68.5882
64.4325
60.2769
56.1214
51.966
47.8108
43.656
39.5017
35.3482
31.1959
27.0455
22.8975
18.7539
14.6148
10.4859
6.34765
2.19145
420.298
414.21
410.02
404.538
399.779
394.944
390.35
385.804
381.356
376.96
372.616
368.311
364.038
359.791
355.564
351.353
347.155
342.968
338.787
334.613
330.444
326.278
322.114
317.953
313.793
309.635
305.477
301.319
297.162
293.006
288.849
284.693
280.537
276.381
272.225
268.069
263.913
259.757
255.601
251.445
247.29
243.134
238.978
234.822
230.666
226.51
222.354
218.198
214.043
209.887
205.731
201.575
197.419
193.263
189.107
184.952
180.796
176.64
172.484
168.328
164.172
160.017
155.861
151.705
147.549
143.393
139.237
135.081
130.926
126.77
122.614
118.458
114.302
110.146
105.991
101.835
97.6788
93.523
89.3672
85.2114
81.0556
76.8998
72.744
68.5882
64.4325
60.2769
56.1214
51.966
47.8108
43.656
39.5017
35.3482
31.1959
27.0455
22.8975
18.7539
14.6148
10.4859
6.34765
2.19146
420.311
414.209
410.015
404.534
399.776
394.942
390.347
385.802
381.353
376.957
372.614
368.308
364.036
359.788
355.561
351.351
347.153
342.965
338.785
334.611
330.441
326.275
322.112
317.95
313.791
309.632
305.474
301.317
297.16
293.003
288.847
284.69
280.534
276.378
272.222
268.066
263.91
259.754
255.599
251.443
247.287
243.131
238.975
234.819
230.663
226.507
222.352
218.196
214.04
209.884
205.728
201.572
197.416
193.261
189.105
184.949
180.793
176.637
172.481
168.325
164.17
160.014
155.858
151.702
147.546
143.39
139.235
135.079
130.923
126.767
122.611
118.455
114.3
110.144
105.988
101.832
97.6762
93.5203
89.3645
85.2087
81.0529
76.8971
72.7413
68.5855
64.4298
60.2742
56.1187
51.9633
47.8081
43.6533
39.499
35.3456
31.1932
27.0428
22.8948
18.7512
14.6121
10.483
6.345
2.18922
420.337
414.205
410.007
404.526
399.77
394.936
390.342
385.796
381.348
376.951
372.608
368.303
364.03
359.783
355.556
351.345
347.147
342.959
338.779
334.605
330.436
326.27
322.106
317.945
313.785
309.626
305.469
301.311
297.154
292.998
288.841
284.685
280.529
276.373
272.217
268.061
263.905
259.749
255.593
251.437
247.281
243.126
238.97
234.814
230.658
226.502
222.346
218.19
214.034
209.879
205.723
201.567
197.411
193.255
189.099
184.943
180.788
176.632
172.476
168.32
164.164
160.008
155.853
151.697
147.541
143.385
139.229
135.073
130.918
126.762
122.606
118.45
114.294
110.138
105.982
101.827
97.6708
93.5149
89.3591
85.2033
81.0475
76.8917
72.7359
68.5801
64.4244
60.2688
56.1133
51.9579
47.8027
43.6479
39.4936
35.3402
31.1879
27.0374
22.8894
18.7458
14.6067
10.4774
6.33969
2.18476
420.376
414.2
409.994
404.514
399.76
394.928
390.334
385.788
381.34
376.943
372.6
368.295
364.022
359.775
355.548
351.337
347.139
342.951
338.771
334.597
330.428
326.262
322.098
317.937
313.777
309.618
305.46
301.303
297.146
292.99
288.833
284.677
280.521
276.365
272.209
268.053
263.897
259.741
255.585
251.429
247.273
243.117
238.962
234.806
230.65
226.494
222.338
218.182
214.026
209.871
205.715
201.559
197.403
193.247
189.091
184.935
180.78
176.624
172.468
168.312
164.156
160
155.844
151.689
147.533
143.377
139.221
135.065
130.909
126.754
122.598
118.442
114.286
110.13
105.974
101.818
97.6627
93.5068
89.351
85.1952
81.0394
76.8836
72.7278
68.572
64.4163
60.2607
56.1052
51.9498
47.7946
43.6398
39.4855
35.3321
31.1798
27.0293
22.8814
18.7377
14.5985
10.4689
6.33174
2.17806
420.43
414.193
409.976
404.498
399.748
394.917
390.323
385.777
381.329
376.932
372.589
368.284
364.011
359.764
355.537
351.326
347.128
342.941
338.76
334.586
330.417
326.251
322.088
317.926
313.766
309.608
305.45
301.292
297.135
292.979
288.822
284.666
280.51
276.354
272.198
268.042
263.886
259.73
255.574
251.418
247.263
243.107
238.951
234.795
230.639
226.483
222.327
218.171
214.016
209.86
205.704
201.548
197.392
193.236
189.08
184.925
180.769
176.613
172.457
168.301
164.145
159.99
155.834
151.678
147.522
143.366
139.21
135.054
130.899
126.743
122.587
118.431
114.275
110.119
105.964
101.808
97.6519
93.496
89.3402
85.1844
81.0286
76.8728
72.717
68.5612
64.4055
60.2499
56.0944
51.939
47.7838
43.629
39.4748
35.3213
31.169
27.0185
22.8706
18.7269
14.5877
10.4575
6.32115
2.16912
420.497
414.183
409.955
404.479
399.733
394.904
390.309
385.764
381.315
376.918
372.575
368.27
363.998
359.75
355.523
351.313
347.115
342.927
338.747
334.573
330.403
326.237
322.074
317.913
313.753
309.594
305.436
301.279
297.122
292.965
288.809
284.653
280.497
276.341
272.185
268.029
263.873
259.717
255.561
251.405
247.249
243.093
238.937
234.781
230.626
226.47
222.314
218.158
214.002
209.846
205.69
201.535
197.379
193.223
189.067
184.911
180.755
176.599
172.444
168.288
164.132
159.976
155.82
151.664
147.509
143.353
139.197
135.041
130.885
126.729
122.573
118.418
114.262
110.106
105.95
101.794
97.6384
93.4825
89.3267
85.1709
81.0151
76.8593
72.7035
68.5478
64.3921
60.2364
56.0809
51.9255
47.7703
43.6155
39.4613
35.3078
31.1555
27.0051
22.8571
18.7133
14.5741
10.4434
6.30791
2.15794
420.58
414.17
409.928
404.456
399.715
394.887
390.293
385.747
381.298
376.902
372.559
368.254
363.981
359.734
355.507
351.297
347.099
342.911
338.731
334.557
330.387
326.221
322.058
317.897
313.737
309.578
305.42
301.263
297.106
292.949
288.793
284.636
280.48
276.324
272.168
268.012
263.856
259.7
255.545
251.389
247.233
243.077
238.921
234.765
230.609
226.453
222.298
218.142
213.986
209.83
205.674
201.518
197.362
193.207
189.051
184.895
180.739
176.583
172.427
168.272
164.116
159.96
155.804
151.648
147.492
143.336
139.181
135.025
130.869
126.713
122.557
118.401
114.246
110.09
105.934
101.778
97.6222
93.4663
89.3105
85.1547
80.9989
76.8431
72.6873
68.5316
64.3759
60.2202
56.0647
51.9093
47.7542
43.5994
39.4451
35.2916
31.1393
26.9889
22.8409
18.6971
14.5579
10.4265
6.29204
2.14451
420.679
414.153
409.897
404.429
399.694
394.868
390.273
385.728
381.279
376.883
372.54
368.235
363.962
359.715
355.488
351.278
347.08
342.892
338.712
334.538
330.368
326.202
322.039
317.878
313.718
309.559
305.401
301.244
297.087
292.93
288.774
284.618
280.461
276.305
272.149
267.993
263.838
259.682
255.526
251.37
247.214
243.058
238.902
234.746
230.59
226.435
222.279
218.123
213.967
209.811
205.655
201.499
197.344
193.188
189.032
184.876
180.72
176.564
172.408
168.253
164.097
159.941
155.785
151.629
147.473
143.318
139.162
135.006
130.85
126.694
122.538
118.382
114.227
110.071
105.915
101.759
97.6033
93.4475
89.2916
85.1358
80.98
76.8242
72.6684
68.5127
64.357
60.2013
56.0458
51.8904
47.7353
43.5805
39.4262
35.2727
31.1205
26.97
22.8221
18.6782
14.5389
10.4068
6.27355
2.1288
420.796
414.132
409.861
404.398
399.669
394.846
390.251
385.706
381.257
376.861
372.518
368.213
363.94
359.693
355.466
351.256
347.058
342.87
338.69
334.516
330.347
326.181
322.017
317.856
313.696
309.537
305.38
301.222
297.065
292.909
288.752
284.596
280.44
276.284
272.128
267.972
263.816
259.66
255.504
251.348
247.192
243.036
238.881
234.725
230.569
226.413
222.257
218.101
213.945
209.79
205.634
201.478
197.322
193.166
189.01
184.854
180.699
176.543
172.387
168.231
164.075
159.919
155.764
151.608
147.452
143.296
139.14
134.984
130.828
126.673
122.517
118.361
114.205
110.049
105.893
101.738
97.5817
93.4259
89.27
85.1142
80.9584
76.8026
72.6468
68.4911
64.3354
60.1797
56.0242
51.8688
47.7137
43.5589
39.4046
35.2512
31.0989
26.9484
22.8005
18.6565
14.5173
10.3844
6.25243
2.11083
420.931
414.105
409.821
404.364
399.642
394.821
390.226
385.681
381.232
376.836
372.493
368.188
363.916
359.669
355.442
351.231
347.034
342.846
338.666
334.492
330.322
326.156
321.993
317.832
313.672
309.513
305.355
301.198
297.041
292.884
288.728
284.572
280.416
276.26
272.104
267.948
263.792
259.636
255.48
251.324
247.168
243.012
238.856
234.7
230.545
226.389
222.233
218.077
213.921
209.765
205.609
201.454
197.298
193.142
188.986
184.83
180.674
176.518
172.363
168.207
164.051
159.895
155.739
151.583
147.428
143.272
139.116
134.96
130.804
126.648
122.492
118.337
114.181
110.025
105.869
101.713
97.5574
93.4016
89.2458
85.0899
80.9341
76.7783
72.6226
68.4668
64.3111
60.1555
55.9999
51.8445
47.6894
43.5346
39.3803
35.2269
31.0746
26.9242
22.7763
18.6322
14.4929
10.3592
6.22869
2.09055
421.088
414.072
409.775
404.327
399.611
394.793
390.198
385.653
381.204
376.808
372.465
368.161
363.888
359.641
355.415
351.204
347.007
342.819
338.639
334.465
330.295
326.129
321.966
317.805
313.645
309.486
305.328
301.171
297.014
292.857
288.701
284.545
280.389
276.233
272.077
267.921
263.765
259.609
255.453
251.297
247.141
242.985
238.829
234.673
230.518
226.362
222.206
218.05
213.894
209.738
205.582
201.427
197.271
193.115
188.959
184.803
180.647
176.491
172.336
168.18
164.024
159.868
155.712
151.556
147.401
143.245
139.089
134.933
130.777
126.621
122.466
118.31
114.154
109.998
105.842
101.686
97.5304
93.3746
89.2188
85.063
80.9071
76.7513
72.5956
68.4398
64.2841
60.1285
55.973
51.8176
47.6624
43.5076
39.3534
35.1999
31.0477
26.8972
22.7494
18.6052
14.4659
10.3314
6.20235
2.06796
421.267
414.03
409.725
404.286
399.577
394.763
390.167
385.623
381.174
376.778
372.435
368.131
363.858
359.611
355.385
351.175
346.977
342.789
338.609
334.435
330.266
326.1
321.936
317.775
313.615
309.457
305.299
301.141
296.984
292.828
288.671
284.515
280.359
276.203
272.047
267.891
263.735
259.579
255.423
251.267
247.111
242.956
238.8
234.644
230.488
226.332
222.176
218.02
213.864
209.709
205.553
201.397
197.241
193.085
188.929
184.773
180.618
176.462
172.306
168.15
163.994
159.838
155.683
151.527
147.371
143.215
139.059
134.903
130.748
126.592
122.436
118.28
114.124
109.968
105.812
101.657
97.5008
93.3449
89.1891
85.0333
80.8775
76.7217
72.5659
68.4102
64.2545
60.0988
55.9433
51.7879
47.6328
43.478
39.3237
35.1703
31.018
26.8676
22.7197
18.5755
14.4362
10.3009
6.17341
2.04302
421.472
413.978
409.67
404.243
399.54
394.729
390.133
385.589
381.14
376.745
372.402
368.098
363.826
359.579
355.352
351.142
346.944
342.757
338.577
334.403
330.233
326.067
321.904
317.743
313.583
309.424
305.266
301.109
296.952
292.795
288.639
284.483
280.327
276.171
272.015
267.859
263.703
259.547
255.391
251.235
247.079
242.923
238.767
234.612
230.456
226.3
222.144
217.988
213.832
209.676
205.52
201.365
197.209
193.053
188.897
184.741
180.585
176.43
172.274
168.118
163.962
159.806
155.65
151.494
147.339
143.183
139.027
134.871
130.715
126.559
122.404
118.248
114.092
109.936
105.78
101.624
97.4685
93.3126
89.1568
85.001
80.8452
76.6894
72.5336
68.3779
64.2222
60.0665
55.911
51.7556
47.6005
43.4457
39.2914
35.138
30.9858
26.8353
22.6875
18.5432
14.4038
10.2679
6.14195
2.01578
421.707
413.914
409.611
404.197
399.5
394.693
390.097
385.553
381.104
376.709
372.367
368.062
363.79
359.544
355.317
351.107
346.91
342.722
338.542
334.368
330.199
326.033
321.869
317.708
313.548
309.39
305.232
301.074
296.917
292.761
288.604
284.448
280.292
276.136
271.98
267.824
263.668
259.512
255.356
251.2
247.044
242.889
238.733
234.577
230.421
226.265
222.109
217.953
213.798
209.642
205.486
201.33
197.174
193.018
188.862
184.707
180.551
176.395
172.239
168.083
163.927
159.771
155.616
151.46
147.304
143.148
138.992
134.836
130.681
126.525
122.369
118.213
114.057
109.901
105.745
101.59
97.4338
93.278
89.1221
84.9663
80.8105
76.6547
72.4989
68.3432
64.1875
60.0319
55.8763
51.7209
47.5658
43.411
39.2568
35.1034
30.9511
26.8007
22.6529
18.5085
14.3691
10.2325
6.10819
1.98637
421.978
413.837
409.547
404.148
399.457
394.654
390.058
385.515
381.066
376.671
372.329
368.025
363.753
359.507
355.28
351.07
346.873
342.685
338.505
334.331
330.162
325.996
321.833
317.671
313.512
309.353
305.195
301.038
296.881
292.724
288.568
284.411
280.255
276.099
271.943
267.787
263.631
259.475
255.32
251.164
247.008
242.852
238.696
234.54
230.384
226.228
222.073
217.917
213.761
209.605
205.449
201.293
197.137
192.982
188.826
184.67
180.514
176.358
172.202
168.046
163.891
159.735
155.579
151.423
147.267
143.111
138.956
134.8
130.644
126.488
122.332
118.176
114.021
109.865
105.709
101.553
97.3971
93.2413
89.0855
84.9297
80.7738
76.618
72.4623
68.3065
64.1508
59.9952
55.8397
51.6843
47.5292
43.3744
39.2202
35.0667
30.9145
26.7641
22.6163
18.4719
14.3323
10.1952
6.07234
1.95496
422.283
413.741
409.48
404.099
399.412
394.613
390.016
385.475
381.026
376.631
372.289
367.986
363.714
359.468
355.242
351.032
346.834
342.647
338.467
334.293
330.124
325.958
321.794
317.633
313.473
309.315
305.157
300.999
296.842
292.686
288.529
284.373
280.217
276.061
271.905
267.749
263.593
259.437
255.281
251.125
246.969
242.814
238.658
234.502
230.346
226.19
222.034
217.878
213.722
209.567
205.411
201.255
197.099
192.943
188.787
184.631
180.476
176.32
172.164
168.008
163.852
159.696
155.541
151.385
147.229
143.073
138.917
134.761
130.606
126.45
122.294
118.138
113.982
109.826
105.67
101.515
97.3588
93.2029
89.0471
84.8913
80.7355
76.5797
72.4239
68.2682
64.1125
59.9568
55.8013
51.6459
47.4908
43.336
39.1818
35.0284
30.8762
26.7258
22.578
18.4336
14.294
10.1565
6.03463
1.92169
422.621
413.63
409.416
404.052
399.369
394.574
389.977
385.436
380.988
376.594
372.252
367.948
363.677
359.431
355.205
350.995
346.797
342.61
338.43
334.256
330.087
325.921
321.758
317.597
313.437
309.278
305.12
300.963
296.806
292.649
288.493
284.337
280.181
276.025
271.869
267.713
263.557
259.401
255.245
251.089
246.933
242.777
238.621
234.465
230.31
226.154
221.998
217.842
213.686
209.53
205.374
201.219
197.063
192.907
188.751
184.595
180.439
176.283
172.128
167.972
163.816
159.66
155.504
151.348
147.193
143.037
138.881
134.725
130.569
126.413
122.257
118.102
113.946
109.79
105.634
101.478
97.3224
93.1665
89.0107
84.8549
80.6991
76.5433
72.3875
68.2318
64.0761
59.9204
55.7649
51.6095
47.4544
43.2996