/*--------------------------------*- C++ -*----------------------------------*\
| =========                 |                                                 |
| \\      /  F ield         | OpenFOAM: The Open Source CFD Toolbox           |
|  \\    /   O peration     | Version:  2.3.0                                 |
|   \\  /    A nd           | Web:      www.OpenFOAM.org                      |
|    \\/     M anipulation  |                                                 |
\*---------------------------------------------------------------------------*/
FoamFile
{
    version     2.0;
    format      ascii;
    class       volScalarField;
    location    "1";
    object      pB;
}
// * * * * * * * * * * * * * * * * * * * * * * * * * * * * * * * * * * * * * //

dimensions      [1 1 -3 0 0 -1 0];

internalField   nonuniform List<scalar> 
4000
(
24.0945
52.2623
66.5016
70.7638
69.3892
64.3787
57.6303
50.2228
42.8948
36.0391
29.8679
24.4589
19.8153
15.8934
12.6257
9.9342
7.73932
5.96532
4.54294
3.41083
2.51576
1.81249
1.26309
0.836205
0.506133
0.252134
0.0574898
-0.0910478
-0.204002
-0.28958
-0.354231
-0.402904
-0.439469
-0.466847
-0.487313
-0.502565
-0.513926
-0.52235
-0.528601
-0.533208
-0.536618
-0.53911
-0.540953
-0.54229
-0.543279
-0.543991
-0.544521
-0.544893
-0.545174
-0.545364
-0.545511
-0.5456
-0.54567
-0.545703
-0.545727
-0.545726
-0.545723
-0.545701
-0.545685
-0.545653
-0.545632
-0.545597
-0.545573
-0.545536
-0.545506
-0.54546
-0.545414
-0.545342
-0.545258
-0.545135
-0.544978
-0.544759
-0.544474
-0.544083
-0.543572
-0.542878
-0.541961
-0.540724
-0.539076
-0.536856
-0.533894
-0.529924
-0.524645
-0.517633
-0.508391
-0.496279
-0.480564
-0.46038
-0.434832
-0.403063
-0.364507
-0.319243
-0.268686
-0.216576
-0.170583
-0.143864
-0.154963
-0.219005
-0.312624
-0.304284
25.954
52.2785
65.8971
70.1162
68.7774
63.8564
57.1926
49.8642
42.604
35.8069
29.6852
24.3178
19.7088
15.8154
12.5708
9.89794
7.71796
5.95575
4.54264
3.41774
2.52826
1.82928
1.28316
0.858752
0.530558
0.27797
0.0843837
-0.0633623
-0.175729
-0.260869
-0.325196
-0.373629
-0.410018
-0.437264
-0.457636
-0.472815
-0.484124
-0.492508
-0.498731
-0.503317
-0.506711
-0.509192
-0.511028
-0.512358
-0.513344
-0.514051
-0.514579
-0.514949
-0.515229
-0.515418
-0.515564
-0.515653
-0.515722
-0.515754
-0.515778
-0.515776
-0.515773
-0.515751
-0.515735
-0.515703
-0.515683
-0.515648
-0.515625
-0.515588
-0.515558
-0.515511
-0.515465
-0.515392
-0.515308
-0.515185
-0.515028
-0.514809
-0.514526
-0.514137
-0.513629
-0.512939
-0.512028
-0.510797
-0.509157
-0.506949
-0.504002
-0.500054
-0.494803
-0.487829
-0.47864
-0.466601
-0.450986
-0.430938
-0.405576
-0.374057
-0.335835
-0.291005
-0.240983
-0.189453
-0.143864
-0.116697
-0.124812
-0.179728
-0.255881
-0.241902
27.0781
52.1883
65.0669
69.1653
67.8437
63.0284
56.4801
49.2671
42.1112
35.4069
29.3657
24.0673
19.5165
15.6715
12.4669
9.82651
7.67275
5.93151
4.53502
3.42319
2.5439
1.85284
1.31281
0.893071
0.568436
0.31855
0.127006
-0.0191992
-0.13041
-0.214684
-0.278365
-0.326315
-0.362346
-0.389326
-0.409502
-0.424534
-0.435734
-0.444037
-0.450201
-0.454742
-0.458104
-0.460561
-0.46238
-0.463697
-0.464674
-0.465375
-0.465898
-0.466264
-0.466542
-0.466728
-0.466872
-0.466959
-0.467028
-0.467058
-0.467081
-0.467078
-0.467075
-0.467053
-0.467037
-0.467006
-0.466985
-0.466951
-0.466928
-0.466891
-0.466862
-0.466814
-0.466768
-0.466695
-0.466611
-0.466487
-0.466332
-0.466114
-0.465834
-0.465449
-0.464947
-0.464265
-0.463364
-0.462146
-0.460523
-0.458338
-0.455422
-0.451514
-0.446319
-0.43942
-0.430333
-0.41843
-0.402997
-0.383192
-0.358152
-0.327054
-0.289375
-0.245216
-0.19597
-0.145185
-0.0999131
-0.0715704
-0.074752
-0.11678
-0.172306
-0.151779
27.2135
51.7107
63.8651
67.7842
66.4734
61.7893
55.3984
48.3472
41.3414
34.7726
28.8502
23.6543
19.1904
15.4182
12.2737
9.68248
7.56853
5.85922
4.48811
3.39631
2.53271
1.85385
1.32325
0.910767
0.591678
0.346016
0.157679
0.0138966
-0.0954898
-0.178392
-0.241048
-0.288232
-0.323692
-0.350246
-0.370107
-0.384904
-0.39593
-0.404102
-0.410171
-0.41464
-0.417951
-0.420369
-0.42216
-0.423457
-0.42442
-0.425109
-0.425624
-0.425984
-0.426257
-0.426439
-0.426581
-0.426666
-0.426733
-0.426761
-0.426783
-0.426778
-0.426775
-0.426752
-0.426737
-0.426706
-0.426686
-0.426652
-0.42663
-0.426593
-0.426564
-0.426516
-0.426469
-0.426396
-0.426312
-0.426188
-0.426035
-0.425819
-0.425544
-0.425165
-0.424672
-0.424002
-0.423117
-0.42192
-0.420324
-0.418175
-0.415307
-0.411465
-0.406356
-0.399576
-0.390646
-0.378954
-0.3638
-0.344365
-0.319809
-0.289336
-0.252446
-0.209245
-0.161066
-0.11124
-0.0662236
-0.0359703
-0.0322494
-0.0578342
-0.0895576
-0.059285
26.5984
50.7415
62.267
65.9808
64.6825
60.1525
53.9575
47.1116
40.3
33.9079
28.1415
23.0807
18.7318
15.056
11.9914
9.46561
7.40473
5.73807
4.40094
3.33601
2.49349
1.83108
1.31321
0.910542
0.598976
0.359055
0.175082
0.0346051
-0.0722876
-0.153314
-0.214562
-0.260694
-0.295368
-0.321337
-0.340764
-0.355237
-0.366023
-0.374015
-0.379951
-0.384322
-0.387561
-0.389926
-0.391678
-0.392948
-0.39389
-0.394563
-0.395067
-0.395418
-0.395685
-0.395862
-0.396001
-0.396083
-0.396147
-0.396172
-0.396193
-0.396186
-0.396183
-0.396159
-0.396144
-0.396114
-0.396094
-0.396061
-0.39604
-0.396003
-0.395974
-0.395926
-0.395878
-0.395805
-0.395721
-0.395598
-0.395447
-0.395235
-0.394966
-0.394596
-0.394115
-0.393462
-0.392598
-0.391428
-0.38987
-0.38777
-0.384968
-0.381215
-0.376225
-0.369604
-0.360888
-0.349479
-0.3347
-0.315757
-0.291841
-0.262188
-0.226321
-0.184341
-0.137494
-0.0888159
-0.0440063
-0.0112771
0.000707501
-0.00646417
-0.0130228
0.0265274
25.5193
49.2818
60.2669
63.7721
62.4943
58.1402
52.1767
45.5772
39.0017
32.826
27.2514
22.3572
18.1503
14.5939
11.6283
9.18376
7.18886
5.57527
4.28051
3.24911
2.43296
1.79113
1.28925
0.898914
0.596822
0.364142
0.185681
0.0493836
-0.0543508
-0.132998
-0.19246
-0.237253
-0.270928
-0.296152
-0.315025
-0.329084
-0.339562
-0.347326
-0.353092
-0.357338
-0.360484
-0.362783
-0.364485
-0.365719
-0.366634
-0.367288
-0.367777
-0.368117
-0.368376
-0.368547
-0.368681
-0.368759
-0.36882
-0.368843
-0.368861
-0.368853
-0.368848
-0.368824
-0.368809
-0.368779
-0.36876
-0.368728
-0.368707
-0.368671
-0.368641
-0.368593
-0.368545
-0.368472
-0.368388
-0.368267
-0.368119
-0.367912
-0.367651
-0.367292
-0.366826
-0.366193
-0.365355
-0.364222
-0.36271
-0.360673
-0.357954
-0.354313
-0.349473
-0.343053
-0.334604
-0.323551
-0.309239
-0.290907
-0.267781
-0.239132
-0.204509
-0.163997
-0.118727
-0.0713773
-0.0267824
0.00874796
0.029701
0.0415816
0.0600858
0.105412
24.1558
47.3709
57.87
61.1743
59.9289
55.7722
50.0735
43.759
37.4592
31.5374
26.1889
21.4914
17.4526
14.0376
11.1895
8.84143
6.92492
5.3745
4.13018
3.13878
2.35411
1.73691
1.25417
0.87863
0.587921
0.363953
0.192128
0.0608703
-0.0390508
-0.114822
-0.172121
-0.215293
-0.247756
-0.272074
-0.290272
-0.30383
-0.313935
-0.32142
-0.32698
-0.331074
-0.334108
-0.336325
-0.337967
-0.339156
-0.340039
-0.340669
-0.34114
-0.341467
-0.341716
-0.34188
-0.342007
-0.342081
-0.342139
-0.342159
-0.342174
-0.342164
-0.342158
-0.342134
-0.342118
-0.342089
-0.34207
-0.342039
-0.342019
-0.341982
-0.341953
-0.341905
-0.341857
-0.341783
-0.3417
-0.341581
-0.341437
-0.341236
-0.340984
-0.340639
-0.34019
-0.339582
-0.338776
-0.337685
-0.33623
-0.334268
-0.33165
-0.328143
-0.323484
-0.317306
-0.309178
-0.298549
-0.284794
-0.267188
-0.244996
-0.217528
-0.184354
-0.145539
-0.102078
-0.0562477
-0.0119543
0.026437
0.0564381
0.0869216
0.128966
0.17563
22.6148
45.0617
55.0911
58.2043
57.0056
53.0672
47.6644
41.6707
35.684
30.0518
24.9619
20.4899
16.6439
13.3914
10.6783
8.44122
6.61502
5.1374
3.95131
3.00611
2.25785
1.66915
1.2086
0.850236
0.572755
0.358923
0.194832
0.0694516
-0.0260161
-0.0984246
-0.153193
-0.194464
-0.225503
-0.248758
-0.266163
-0.279131
-0.288796
-0.295956
-0.301273
-0.305188
-0.308091
-0.310211
-0.311782
-0.31292
-0.313765
-0.314366
-0.314815
-0.315128
-0.315365
-0.31552
-0.31564
-0.315709
-0.315762
-0.315779
-0.315791
-0.315779
-0.315772
-0.315747
-0.315731
-0.315702
-0.315684
-0.315654
-0.315634
-0.315598
-0.315568
-0.31552
-0.315472
-0.315399
-0.315317
-0.315201
-0.315062
-0.314868
-0.314626
-0.314296
-0.313869
-0.313288
-0.31252
-0.311478
-0.310089
-0.308215
-0.305713
-0.302364
-0.297915
-0.292017
-0.284261
-0.274124
-0.261014
-0.244244
-0.223123
-0.197001
-0.165471
-0.128571
-0.0871418
-0.0430377
0.000778947
0.0418274
0.0803813
0.128023
0.190772
0.234727
20.963
42.4105
51.953
54.882
53.7444
50.0446
44.9665
39.3273
33.6884
28.3792
23.5786
19.3592
15.7296
12.6595
10.0981
7.9858
6.26121
4.86558
3.74509
2.85201
2.14486
1.58838
1.15293
0.814017
0.551534
0.349209
0.193907
0.0752157
-0.0151792
-0.0837536
-0.135632
-0.174732
-0.204143
-0.226179
-0.242675
-0.254966
-0.264128
-0.270914
-0.275955
-0.279665
-0.282416
-0.284427
-0.285916
-0.286994
-0.287795
-0.288364
-0.288789
-0.289083
-0.289307
-0.289452
-0.289564
-0.289627
-0.289676
-0.289689
-0.289698
-0.289684
-0.289676
-0.28965
-0.289634
-0.289605
-0.289588
-0.289558
-0.289538
-0.289502
-0.289473
-0.289425
-0.289377
-0.289305
-0.289225
-0.289112
-0.288978
-0.288793
-0.288563
-0.28825
-0.287846
-0.287297
-0.28657
-0.285585
-0.28427
-0.282496
-0.280128
-0.276957
-0.272746
-0.267166
-0.259832
-0.250251
-0.237868
-0.22204
-0.202118
-0.177497
-0.147793
-0.11301
-0.0738321
-0.0316861
0.0113816
0.0546256
0.100711
0.163178
0.242826
0.281008
19.2418
39.4706
48.4843
51.2302
50.167
46.7253
41.9985
36.7447
31.4859
26.531
22.0484
18.107
14.7158
11.8467
9.45271
7.47819
5.86585
4.56085
3.51295
2.67757
2.01597
1.49523
1.08765
0.770354
0.524554
0.335041
0.189539
0.078311
-0.00641794
-0.0707058
-0.11935
-0.156019
-0.183605
-0.204275
-0.219751
-0.231282
-0.239878
-0.246245
-0.250975
-0.254455
-0.257036
-0.258923
-0.26032
-0.261332
-0.262083
-0.262616
-0.263013
-0.263287
-0.263495
-0.263629
-0.263732
-0.263789
-0.263832
-0.263842
-0.263848
-0.263832
-0.263822
-0.263796
-0.263779
-0.263751
-0.263733
-0.263704
-0.263684
-0.263649
-0.263619
-0.263572
-0.263524
-0.263453
-0.263375
-0.263266
-0.263138
-0.262963
-0.262746
-0.262453
-0.262074
-0.26156
-0.26088
-0.259957
-0.258725
-0.257062
-0.254843
-0.251871
-0.247926
-0.2427
-0.235834
-0.22687
-0.215291
-0.200501
-0.181899
-0.158923
-0.131211
-0.0987371
-0.0620258
-0.0220956
0.0198544
0.0645947
0.116737
0.191013
0.283181
0.31368
17.4766
36.2898
44.7169
47.2744
46.2968
43.1311
38.7802
33.9401
29.0912
24.5193
20.3811
16.7414
13.609
10.9584
8.74639
6.92173
5.43156
4.22528
3.25648
2.48402
1.87214
1.39043
1.01332
0.719677
0.492146
0.31668
0.18193
0.0788993
0.000398221
-0.0591745
-0.104259
-0.138249
-0.163824
-0.182988
-0.197339
-0.208031
-0.216002
-0.221905
-0.226291
-0.229517
-0.231911
-0.23366
-0.234956
-0.235894
-0.23659
-0.237083
-0.23745
-0.237702
-0.237892
-0.238014
-0.238106
-0.238156
-0.238194
-0.238199
-0.238203
-0.238185
-0.238173
-0.238147
-0.23813
-0.238101
-0.238084
-0.238055
-0.238034
-0.238
-0.23797
-0.237923
-0.237875
-0.237806
-0.237731
-0.237627
-0.237506
-0.237341
-0.237139
-0.236867
-0.236516
-0.23604
-0.235411
-0.234557
-0.233415
-0.231874
-0.229818
-0.227065
-0.223411
-0.218572
-0.212218
-0.203927
-0.193225
-0.179562
-0.162389
-0.141189
-0.115626
-0.0856392
-0.051607
-0.0141742
0.026204
0.0715429
0.127914
0.210513
0.310585
0.332612
15.6824
32.9097
40.6836
43.0416
42.1583
39.2849
35.3321
30.9316
26.5196
22.357
18.5876
15.2712
12.4164
10.0003
7.98373
6.32008
4.96123
3.8611
2.97743
2.27272
1.71441
1.27479
0.930551
0.662456
0.454673
0.294402
0.171294
0.0771453
0.00539748
-0.0490585
-0.0902779
-0.121358
-0.144746
-0.162272
-0.175398
-0.185177
-0.192467
-0.197866
-0.201878
-0.204827
-0.207017
-0.208616
-0.209802
-0.210658
-0.211295
-0.211744
-0.212078
-0.212305
-0.212477
-0.212585
-0.212666
-0.212708
-0.21274
-0.212741
-0.212742
-0.212722
-0.212708
-0.212681
-0.212664
-0.212636
-0.212618
-0.212589
-0.212568
-0.212534
-0.212504
-0.212458
-0.212411
-0.212344
-0.212272
-0.212173
-0.21206
-0.211907
-0.211721
-0.211471
-0.211151
-0.210716
-0.210141
-0.20936
-0.208317
-0.206908
-0.205028
-0.202512
-0.199173
-0.194752
-0.188951
-0.181385
-0.171624
-0.15917
-0.143526
-0.124223
-0.10095
-0.0736192
-0.0424751
-0.00783992
0.0304456
0.0753369
0.133866
0.22104
0.324419
0.338146
13.8686
29.3655
36.4173
38.5605
37.7775
35.2106
31.676
27.7383
23.7875
20.058
16.6792
13.7058
11.1456
8.97858
7.16967
5.67716
4.45796
3.47076
2.67769
2.04515
1.54392
1.14918
0.840028
0.599211
0.412532
0.268512
0.157863
0.0732284
0.00871853
-0.0402502
-0.0773217
-0.105276
-0.126316
-0.142083
-0.153892
-0.162688
-0.169247
-0.174103
-0.177712
-0.180364
-0.182333
-0.183771
-0.184838
-0.185607
-0.186179
-0.18658
-0.186879
-0.18708
-0.187232
-0.187325
-0.187395
-0.187428
-0.187453
-0.187451
-0.187448
-0.187426
-0.187411
-0.187384
-0.187366
-0.187338
-0.18732
-0.187291
-0.18727
-0.187235
-0.187205
-0.18716
-0.187114
-0.18705
-0.186981
-0.186889
-0.186784
-0.186643
-0.186474
-0.186248
-0.18596
-0.185569
-0.185052
-0.18435
-0.183412
-0.182144
-0.180453
-0.178189
-0.175188
-0.171214
-0.166002
-0.159208
-0.150448
-0.139277
-0.125252
-0.107956
-0.087101
-0.0625821
-0.0345293
-0.00300283
0.0326251
0.0759297
0.134412
0.222339
0.324639
0.330984
12.0407
25.6873
31.9499
33.86
33.1811
30.9333
27.8344
24.38
20.9119
17.6365
14.6681
12.0551
9.8048
7.89982
6.30947
4.99716
3.92506
3.05688
2.35934
1.8029
1.36192
1.01457
0.742493
0.530516
0.366164
0.239347
0.141899
0.0673488
0.010516
-0.0326293
-0.0652967
-0.0899316
-0.108475
-0.12237
-0.132779
-0.14053
-0.146311
-0.150588
-0.153769
-0.156104
-0.15784
-0.159106
-0.160045
-0.160721
-0.161224
-0.161575
-0.161836
-0.162009
-0.162139
-0.162217
-0.162275
-0.162299
-0.162318
-0.162311
-0.162305
-0.162281
-0.162265
-0.162237
-0.162219
-0.16219
-0.162171
-0.162142
-0.162121
-0.162087
-0.162057
-0.162012
-0.161967
-0.161906
-0.161842
-0.161755
-0.16166
-0.161533
-0.161382
-0.161181
-0.160927
-0.160581
-0.160126
-0.159506
-0.158679
-0.157561
-0.15607
-0.154074
-0.151429
-0.147928
-0.143339
-0.137359
-0.129653
-0.119831
-0.107507
-0.0923134
-0.0739934
-0.0524291
-0.0276611
0.000445013
0.0328325
0.0733753
0.129582
0.214527
0.311711
0.312107
10.2027
21.9007
27.312
28.9699
28.3968
26.4783
23.8306
20.8772
17.9107
15.1078
12.5668
10.3295
8.40244
6.7709
5.40869
4.28454
3.36608
2.62224
2.02454
1.54771
1.16975
0.872008
0.63875
0.456993
0.316048
0.207279
0.123685
0.0597261
0.0109599
-0.0260637
-0.0540991
-0.0752409
-0.091157
-0.103082
-0.112015
-0.118666
-0.123626
-0.127294
-0.130022
-0.132025
-0.133513
-0.134598
-0.135404
-0.135981
-0.13641
-0.136708
-0.13693
-0.137073
-0.137181
-0.137242
-0.137288
-0.137303
-0.137314
-0.137302
-0.137293
-0.137268
-0.13725
-0.137222
-0.137203
-0.137174
-0.137155
-0.137126
-0.137104
-0.13707
-0.13704
-0.136996
-0.136953
-0.136894
-0.136835
-0.136756
-0.13667
-0.136557
-0.136425
-0.136251
-0.136032
-0.135734
-0.135343
-0.134809
-0.134099
-0.133138
-0.131856
-0.130141
-0.127869
-0.124864
-0.120926
-0.115798
-0.109194
-0.100779
-0.0902264
-0.07722
-0.061537
-0.0430553
-0.0217525
0.00263216
0.031205
0.0678325
0.119611
0.198071
0.286543
0.282718
8.35693
18.0277
22.533
23.9197
23.4527
21.8721
19.6883
17.2512
14.8022
12.4874
10.3883
8.53977
6.94738
5.59901
4.47312
3.54393
2.78471
2.16979
1.67564
1.28137
0.96883
0.722592
0.529659
0.379307
0.2627
0.172703
0.103528
0.0505972
0.0102341
-0.02041
-0.0436167
-0.0611156
-0.0742906
-0.0841591
-0.0915528
-0.0970542
-0.101157
-0.104189
-0.106446
-0.1081
-0.109331
-0.110225
-0.110891
-0.111365
-0.111718
-0.11196
-0.112141
-0.112254
-0.112338
-0.112382
-0.112414
-0.112419
-0.112423
-0.112407
-0.112395
-0.112368
-0.112349
-0.11232
-0.1123
-0.112271
-0.112252
-0.112222
-0.1122
-0.112166
-0.112136
-0.112093
-0.112052
-0.111997
-0.111942
-0.11187
-0.111795
-0.111697
-0.111585
-0.111438
-0.111255
-0.111007
-0.110682
-0.110239
-0.109649
-0.10885
-0.107787
-0.106364
-0.104481
-0.10199
-0.0987298
-0.0944851
-0.0890223
-0.0820647
-0.0733429
-0.0625965
-0.0496381
-0.0343514
-0.0166759
0.00370816
0.0279273
0.0595612
0.10493
0.173751
0.250418
0.244186
6.50541
14.0875
17.6406
18.7389
18.3774
17.1415
15.4321
13.5237
11.6052
9.7914
8.1462
6.69717
5.44879
4.39161
3.50879
2.78018
2.18481
1.70258
1.31503
1.0058
0.760649
0.567488
0.416126
0.298163
0.206664
0.136043
0.0817543
0.0402146
0.00853417
-0.0155159
-0.03373
-0.0474611
-0.0578002
-0.0655409
-0.0713409
-0.0756527
-0.0788689
-0.0812421
-0.08301
-0.0843036
-0.0852668
-0.0859647
-0.0864847
-0.0868519
-0.0871261
-0.0873104
-0.0874477
-0.0875295
-0.0875894
-0.0876157
-0.0876344
-0.0876298
-0.087626
-0.0876053
-0.0875898
-0.0875614
-0.087541
-0.0875114
-0.0874913
-0.0874622
-0.0874418
-0.0874117
-0.0873889
-0.0873554
-0.0873258
-0.0872835
-0.0872443
-0.0871928
-0.0871433
-0.0870797
-0.0870156
-0.0869332
-0.0868421
-0.0867223
-0.0865773
-0.0863798
-0.0861231
-0.0857718
-0.0853067
-0.0846761
-0.0838377
-0.0827158
-0.081234
-0.0792743
-0.0767115
-0.0733766
-0.0690884
-0.0636286
-0.0567878
-0.048361
-0.0382
-0.0262028
-0.0122948
0.0038428
0.0232292
0.0489155
0.0861385
0.142617
0.204923
0.198015
4.64961
10.097
12.6614
13.4569
13.1999
12.3136
11.0868
9.71668
8.339
7.03616
5.85422
4.8131
3.91608
3.15636
2.52191
1.99826
1.57037
1.22379
0.945243
0.722978
0.54676
0.407909
0.299098
0.214294
0.148511
0.0977391
0.0587063
0.0288433
0.00606608
-0.0112208
-0.0243129
-0.034178
-0.0416065
-0.0471627
-0.0513264
-0.0544167
-0.0567222
-0.0584189
-0.0596848
-0.0606077
-0.0612964
-0.0617919
-0.0621622
-0.0624195
-0.0626122
-0.0627369
-0.0628302
-0.0628801
-0.0629153
-0.0629234
-0.0629282
-0.0629136
-0.0629022
-0.0628767
-0.062858
-0.0628281
-0.0628064
-0.0627762
-0.0627555
-0.0627261
-0.0627051
-0.0626748
-0.0626515
-0.0626181
-0.0625888
-0.0625478
-0.0625107
-0.0624631
-0.0624191
-0.0623638
-0.0623111
-0.0622447
-0.0621747
-0.0620834
-0.0619764
-0.0618306
-0.0616435
-0.0613866
-0.0610486
-0.06059
-0.0599823
-0.059169
-0.0580979
-0.0566818
-0.054833
-0.0524287
-0.0493409
-0.0454109
-0.0404899
-0.0344295
-0.0271232
-0.0184908
-0.00846412
0.00322421
0.0173809
0.0363315
0.0639895
0.105947
0.151894
0.145805
2.79087
6.07177
7.62106
8.10289
7.94918
7.41601
6.67759
5.8527
5.02309
4.23841
3.52643
2.89926
2.35885
1.90111
1.51881
1.20328
0.945474
0.73666
0.568839
0.43493
0.32876
0.245108
0.17955
0.128462
0.0888313
0.0582502
0.0347389
0.0167586
0.00304367
-0.00735784
-0.0152348
-0.0211627
-0.0256267
-0.0289577
-0.0314543
-0.0333
-0.0346777
-0.0356851
-0.0364394
-0.0369844
-0.0373931
-0.0376821
-0.0378996
-0.0380447
-0.0381544
-0.0382183
-0.0382666
-0.038284
-0.0382943
-0.038284
-0.0382747
-0.0382502
-0.0382312
-0.0382008
-0.0381788
-0.0381475
-0.0381246
-0.0380938
-0.0380722
-0.0380426
-0.0380211
-0.0379906
-0.0379668
-0.0379336
-0.0379046
-0.0378651
-0.0378303
-0.0377868
-0.0377486
-0.037702
-0.0376608
-0.0376107
-0.0375623
-0.0374999
-0.0374313
-0.0373378
-0.0372211
-0.0370599
-0.0368511
-0.0365672
-0.0361941
-0.0356947
-0.0350412
-0.0341779
-0.033055
-0.0315961
-0.0297272
-0.0273501
-0.0243768
-0.0207163
-0.0163061
-0.0110934
-0.00503186
0.00205597
0.0106857
0.0223128
0.0393539
0.065194
0.0933517
0.0892325
0.930388
2.02605
2.54426
2.70565
2.65453
2.47655
2.22999
1.95444
1.67729
1.41508
1.17708
0.967474
0.786847
0.633793
0.505935
0.400438
0.314271
0.244506
0.188448
0.143731
0.10828
0.080361
0.0584822
0.0414449
0.02823
0.018046
0.0102166
0.00424321
-0.00031335
-0.00375567
-0.00636107
-0.00830899
-0.00977605
-0.0108571
-0.0116682
-0.0122553
-0.0126949
-0.0130054
-0.0132423
-0.0134048
-0.0135301
-0.01361
-0.0136727
-0.0137042
-0.0137299
-0.0137323
-0.0137351
-0.0137197
-0.0137051
-0.0136763
-0.0136529
-0.0136184
-0.0135919
-0.0135567
-0.0135314
-0.0134986
-0.0134745
-0.013443
-0.0134207
-0.0133908
-0.0133688
-0.0133382
-0.013314
-0.013281
-0.0132525
-0.0132146
-0.0131822
-0.013143
-0.0131109
-0.0130731
-0.0130438
-0.0130102
-0.0129834
-0.0129502
-0.01292
-0.012879
-0.0128333
-0.0127684
-0.0126898
-0.0125824
-0.0124462
-0.0122639
-0.012032
-0.0117271
-0.0113371
-0.0108327
-0.010194
-0.00938347
-0.00837475
-0.00713452
-0.00564519
-0.00388555
-0.0018407
0.000553264
0.00347217
0.00741291
0.0131908
0.02194
0.0314493
0.030023
-0.930663
-2.02643
-2.54463
-2.70596
-2.65478
-2.47689
-2.23044
-1.95527
-1.6785
-1.4168
-1.17947
-0.970301
-0.790089
-0.63755
-0.510202
-0.405036
-0.319037
-0.249326
-0.193276
-0.14852
-0.113029
-0.0850351
-0.0630934
-0.0459677
-0.0326787
-0.0223967
-0.0144908
-0.00841564
-0.00378175
-0.000240131
0.00244475
0.00449112
0.00603173
0.00720864
0.00808924
0.00876531
0.00926711
0.00965608
0.00993854
0.0101603
0.0103196
0.0104499
0.0105427
0.0106254
0.0106841
0.0107434
0.0107864
0.0108347
0.010874
0.0109212
0.0109585
0.011003
0.0110368
0.0110767
0.0111053
0.0111398
0.0111651
0.0111972
0.0112202
0.0112504
0.0112729
0.0113035
0.0113281
0.0113609
0.0113888
0.0114249
0.0114546
0.0114893
0.0115151
0.0115439
0.0115614
0.0115785
0.0115835
0.0115877
0.0115794
0.0115683
0.0115431
0.0115115
0.0114596
0.0113903
0.0112887
0.011153
0.0109617
0.0107065
0.0103611
0.00990796
0.00931277
0.00855213
0.00759062
0.00640376
0.00496378
0.0032592
0.00126999
-0.00106147
-0.00391559
-0.00778398
-0.0134872
-0.022156
-0.0315815
-0.0300688
-2.79114
-6.07215
-7.62143
-8.10319
-7.94944
-7.41636
-6.67806
-5.85354
-5.02432
-4.24015
-3.52883
-2.90209
-2.3621
-1.90487
-1.52308
-1.20788
-0.950239
-0.741478
-0.573666
-0.439717
-0.333507
-0.24978
-0.18416
-0.132983
-0.0932781
-0.0625989
-0.0390113
-0.0209293
-0.00713708
0.00336385
0.01132
0.0173461
0.0218833
0.0253097
0.0278755
0.02981
0.0312496
0.0323354
0.0331353
0.0337402
0.0341832
0.0345233
0.0347711
0.0349678
0.0351105
0.0352313
0.0353198
0.0354009
0.0354646
0.0355299
0.035581
0.0356352
0.0356761
0.0357205
0.0357525
0.0357887
0.0358152
0.035848
0.0358718
0.0359023
0.0359252
0.0359559
0.0359808
0.0360132
0.0360404
0.0360745
0.0361013
0.0361314
0.0361507
0.0361704
0.0361759
0.0361768
0.0361602
0.0361357
0.0360893
0.0360264
0.0359309
0.0358034
0.0356217
0.0353764
0.035038
0.0345853
0.0339723
0.0331589
0.0320803
0.0306726
0.0288473
0.0265201
0.0235938
0.0199865
0.0156255
0.0104679
0.00446196
-0.00256337
-0.0111284
-0.0226833
-0.0396498
-0.0654096
-0.0934836
-0.0892781
-4.64987
-10.0974
-12.6618
-13.4573
-13.2002
-12.3139
-11.0873
-9.71754
-8.34025
-7.03792
-5.85664
-4.81596
-3.91935
-3.16014
-2.52619
-2.00286
-1.57514
-1.2286
-0.950067
-0.727762
-0.551504
-0.412578
-0.303704
-0.218811
-0.152954
-0.102084
-0.0629749
-0.0330105
-0.0101561
0.00723038
0.0204011
0.030364
0.0378648
0.0435159
0.0477479
0.0509268
0.0532935
0.0550683
0.0563799
0.057364
0.0580879
0.0586355
0.0590367
0.0593463
0.0595721
0.0597537
0.0598872
0.0600008
0.0600884
0.0601714
0.0602358
0.0602995
0.0603472
0.060396
0.0604312
0.0604693
0.0604971
0.0605306
0.0605551
0.060586
0.0606093
0.0606401
0.0606651
0.0606972
0.0607233
0.0607553
0.0607789
0.0608043
0.0608171
0.0608276
0.0608213
0.0608062
0.0607684
0.0607156
0.0606318
0.060518
0.0603531
0.0601309
0.0598208
0.0594016
0.0588289
0.0580625
0.057032
0.0556659
0.0538611
0.0515078
0.0484634
0.0445835
0.0397092
0.0337015
0.0264444
0.0178671
0.00789582
-0.00373004
-0.0178221
-0.0367008
-0.0642842
-0.106162
-0.152025
-0.14585
-6.50565
-14.0878
-17.641
-18.7392
-18.3777
-17.1419
-15.4326
-13.5246
-11.6065
-9.7932
-8.14865
-6.70006
-5.4521
-4.39541
-3.51308
-2.78478
-2.18958
-1.7074
-1.31985
-1.01058
-0.765389
-0.572151
-0.420727
-0.302674
-0.211102
-0.140381
-0.0860174
-0.0443766
-0.0126192
0.0115308
0.0298224
0.0436508
0.054061
0.0618958
0.0677628
0.0721628
0.0754393
0.0778903
0.079704
0.0810605
0.0820602
0.0828117
0.0833636
0.0837842
0.0840915
0.0843327
0.0845102
0.0846559
0.0847666
0.0848667
0.0849439
0.0850168
0.0850709
0.0851241
0.0851623
0.0852025
0.0852316
0.0852659
0.085291
0.0853225
0.0853462
0.0853772
0.0854021
0.0854337
0.0854586
0.0854883
0.0855084
0.085529
0.0855351
0.0855367
0.0855187
0.085488
0.0854295
0.0853493
0.0852288
0.0850653
0.0848324
0.0845174
0.0840812
0.0834913
0.0826884
0.0816135
0.0801725
0.0782629
0.0757437
0.0724594
0.0682146
0.0628049
0.0560103
0.0476358
0.0375237
0.0255816
0.0117289
-0.00434632
-0.0236684
-0.049283
-0.0864316
-0.142831
-0.205054
-0.198059
-8.35716
-18.028
-22.5333
-23.92
-23.453
-21.8726
-19.6889
-17.2522
-14.8036
-12.4893
-10.3908
-8.54271
-6.95073
-5.60285
-4.47743
-3.54854
-2.78947
-2.1746
-1.68045
-1.28614
-0.973563
-0.727249
-0.534253
-0.383811
-0.267131
-0.177034
-0.107784
-0.0547523
-0.0143124
0.0164316
0.0397147
0.0573099
0.0705545
0.0805161
0.0879753
0.0935642
0.0977264
0.100836
0.103139
0.104858
0.106127
0.107077
0.107775
0.108304
0.108691
0.10899
0.10921
0.109387
0.10952
0.109637
0.109726
0.109808
0.109868
0.109925
0.109966
0.110009
0.110039
0.110075
0.1101
0.110132
0.110157
0.110188
0.110212
0.110243
0.110267
0.110294
0.11031
0.110326
0.110326
0.110318
0.110289
0.110243
0.110165
0.110058
0.109902
0.10969
0.109391
0.108986
0.108427
0.10767
0.106643
0.105267
0.103425
0.100985
0.0977673
0.0935728
0.0881533
0.0812458
0.0725697
0.061875
0.0489652
0.0337336
0.0161131
-0.00420875
-0.0283637
-0.0599263
-0.105221
-0.173962
-0.250547
-0.24423
-10.2029
-21.901
-27.3124
-28.9702
-28.3971
-26.4788
-23.8312
-20.8783
-17.9121
-15.1097
-12.5693
-10.3324
-8.40584
-6.77477
-5.41301
-4.28915
-3.37084
-2.62705
-2.02935
-1.55247
-1.17448
-0.876657
-0.643335
-0.461488
-0.32047
-0.2116
-0.127932
-0.0638727
-0.0150301
0.0220933
0.0502035
0.0714404
0.0874246
0.0994413
0.108438
0.115175
0.120193
0.123939
0.126714
0.128784
0.130312
0.131454
0.132295
0.132928
0.133392
0.133747
0.134008
0.134215
0.13437
0.134502
0.134603
0.134693
0.134759
0.13482
0.134864
0.134908
0.13494
0.134977
0.135003
0.135036
0.135061
0.135092
0.135116
0.135146
0.135168
0.135193
0.135205
0.135216
0.135209
0.135193
0.135152
0.135092
0.134995
0.134863
0.134672
0.134414
0.134051
0.133558
0.13288
0.131963
0.130718
0.129051
0.12682
0.123865
0.11997
0.114892
0.108331
0.0999663
0.0894582
0.076503
0.0608682
0.0424416
0.0211933
-0.00312926
-0.0316382
-0.0681948
-0.1199
-0.19828
-0.286671
-0.282761
-12.0409
-25.6876
-31.9502
-33.8603
-33.1815
-30.9338
-27.8351
-24.3811
-20.9134
-17.6385
-14.6707
-12.0581
-9.80826
-7.90374
-6.31382
-5.00178
-3.92982
-3.06168
-2.36414
-1.80766
-1.36664
-1.01921
-0.747069
-0.535001
-0.370575
-0.243658
-0.146136
-0.0714855
-0.0145766
0.0286682
0.0614083
0.0861369
0.104747
0.118733
0.129203
0.137039
0.142876
0.147231
0.150459
0.152865
0.154642
0.155968
0.156944
0.157678
0.158215
0.158624
0.158925
0.15916
0.159336
0.159482
0.159594
0.159691
0.159762
0.159827
0.159874
0.159921
0.159954
0.159992
0.160019
0.160053
0.160078
0.160109
0.160133
0.160163
0.160182
0.160204
0.160212
0.160218
0.160205
0.16018
0.160129
0.160055
0.15994
0.159783
0.15956
0.159257
0.158834
0.158257
0.157465
0.156393
0.154939
0.152992
0.150388
0.146937
0.14239
0.13646
0.128797
0.119025
0.106745
0.0916017
0.0733294
0.0518198
0.0271061
-0.000938175
-0.0332622
-0.0737345
-0.129867
-0.214734
-0.311837
-0.31215
-13.8687
-29.3657
-36.4176
-38.5608
-37.7779
-35.2112
-31.6768
-27.7394
-23.789
-20.06
-16.6819
-13.7089
-11.1491
-8.98254
-7.17404
-5.68178
-4.46271
-3.47556
-2.68249
-2.0499
-1.54863
-1.15381
-0.844594
-0.603684
-0.416932
-0.27281
-0.162089
-0.0773537
-0.0127683
0.036299
0.0734411
0.101488
0.122592
0.138448
0.150316
0.159196
0.16581
0.170743
0.174401
0.177125
0.179139
0.18064
0.181745
0.182574
0.183181
0.183641
0.183979
0.184242
0.184437
0.184597
0.184717
0.184822
0.184898
0.184966
0.185016
0.185065
0.1851
0.185139
0.185168
0.185202
0.185227
0.185259
0.185283
0.185311
0.185328
0.185347
0.185351
0.185351
0.185332
0.1853
0.185238
0.185152
0.18502
0.18484
0.184586
0.184241
0.183759
0.183103
0.182202
0.180982
0.17933
0.177116
0.174155
0.170232
0.165062
0.158317
0.149599
0.138478
0.124497
0.10725
0.0864422
0.0619779
0.033979
0.00251394
-0.0330509
-0.0762855
-0.134694
-0.222544
-0.324763
-0.331025
-15.6825
-32.9099
-40.6839
-43.0419
-42.1587
-39.2854
-35.3329
-30.9328
-26.5212
-22.3592
-18.5903
-15.2744
-12.4199
-10.0043
-7.98812
-6.32471
-4.96599
-3.86589
-2.98222
-2.27747
-1.71911
-1.27941
-0.935106
-0.666916
-0.45906
-0.298688
-0.175506
-0.0812581
-0.00943549
0.0451178
0.0864053
0.117575
0.141026
0.15864
0.171823
0.181683
0.189028
0.194504
0.198566
0.20159
0.203826
0.205492
0.206718
0.207636
0.208309
0.208817
0.20919
0.209478
0.209691
0.209863
0.209993
0.210103
0.210184
0.210255
0.210308
0.210359
0.210396
0.210436
0.210466
0.210501
0.210528
0.210559
0.210583
0.210609
0.210624
0.210639
0.210639
0.210634
0.210609
0.210569
0.210498
0.2104
0.210252
0.210052
0.209768
0.209383
0.208847
0.208115
0.207112
0.205754
0.203914
0.201448
0.198151
0.19378
0.18802
0.180503
0.170783
0.158378
0.142777
0.123524
0.100297
0.0730203
0.0419297
0.00735553
-0.0308673
-0.0756892
-0.134146
-0.221243
-0.324542
-0.338187
-17.4767
-36.29
-44.7171
-47.2747
-46.2972
-43.1317
-38.7811
-33.9414
-29.0929
-24.5215
-20.3839
-16.7447
-13.6126
-10.9624
-8.75081
-6.92637
-5.43632
-4.23006
-3.26127
-2.48876
-1.87683
-1.39504
-1.01786
-0.724124
-0.496519
-0.320952
-0.186129
-0.0829987
-0.00442385
0.0552445
0.100395
0.134473
0.160108
0.179358
0.193764
0.204536
0.21256
0.218542
0.222979
0.226281
0.228724
0.230542
0.231882
0.232883
0.233617
0.234169
0.234575
0.234886
0.235116
0.2353
0.235437
0.235552
0.235637
0.235712
0.235767
0.23582
0.235859
0.235901
0.235933
0.235968
0.235996
0.236027
0.23605
0.236075
0.236088
0.236099
0.236095
0.236085
0.236054
0.236007
0.235927
0.235818
0.235656
0.235436
0.235125
0.234703
0.234116
0.233314
0.232215
0.230728
0.228713
0.226011
0.222399
0.21761
0.211297
0.203054
0.192393
0.178778
0.161647
0.140497
0.114979
0.085046
0.0510667
0.0136944
-0.0266216
-0.0718916
-0.128191
-0.210713
-0.310706
-0.332652
-19.2419
-39.4707
-48.4845
-51.2305
-50.1675
-46.726
-41.9995
-36.7461
-31.4878
-26.5333
-22.0512
-18.1104
-14.7195
-11.8508
-9.45715
-7.48283
-5.8706
-4.56563
-3.51773
-2.6823
-2.02066
-1.49983
-1.09218
-0.774788
-0.528912
-0.339299
-0.193723
-0.0823963
0.00240493
0.0667865
0.115494
0.152249
0.179893
0.200647
0.216177
0.227786
0.236435
0.24288
0.247662
0.25122
0.253853
0.255812
0.257255
0.258332
0.259123
0.259716
0.260151
0.260484
0.260729
0.260923
0.261067
0.261187
0.261275
0.261352
0.26141
0.261465
0.261506