/*--------------------------------*- C++ -*----------------------------------*\
| =========                 |                                                 |
| \\      /  F ield         | OpenFOAM: The Open Source CFD Toolbox           |
|  \\    /   O peration     | Version:  2.3.0                                 |
|   \\  /    A nd           | Web:      www.OpenFOAM.org                      |
|    \\/     M anipulation  |                                                 |
\*---------------------------------------------------------------------------*/
FoamFile
{
    version     2.0;
    format      ascii;
    class       surfaceScalarField;
    location    "1";
    object      phi;
}
// * * * * * * * * * * * * * * * * * * * * * * * * * * * * * * * * * * * * * //

dimensions      [0 3 -1 0 0 0 0];

internalField   nonuniform List<scalar> 
7860
(
0.00283446
0.00216554
0.00262141
0.000213046
0.00260904
1.23683e-05
0.00260651
2.53105e-06
0.0026092
-2.68425e-06
0.00260789
1.30456e-06
0.00260676
1.13355e-06
0.00260515
1.60931e-06
0.00260388
1.26716e-06
0.00260275
1.13542e-06
0.00260183
9.19517e-07
0.00260105
7.80188e-07
0.0026004
6.47626e-07
0.00259986
5.45263e-07
0.0025994
4.56593e-07
0.00259902
3.81647e-07
0.0025987
3.17802e-07
0.00259844
2.62966e-07
0.00259822
2.15607e-07
0.00259805
1.75442e-07
0.00259791
1.42224e-07
0.00259779
1.14205e-07
0.0025977
9.07182e-08
0.00259763
7.07746e-08
0.00259757
5.54512e-08
0.00259753
4.28912e-08
0.0025975
3.25668e-08
0.00259747
2.45679e-08
0.00259746
1.87788e-08
0.00259744
1.39611e-08
0.00259743
1.04469e-08
0.00259742
7.33828e-09
0.00259742
5.45929e-09
0.00259741
4.33327e-09
0.00259741
3.40494e-09
0.00259741
2.08573e-09
0.00259741
1.45528e-09
0.00259741
1.04225e-09
0.0025974
1.00351e-09
0.0025974
7.79637e-10
0.0025974
9.44845e-10
0.0025974
2.78699e-10
0.0025974
1.9953e-11
0.0025974
-1.78193e-10
0.0025974
3.94526e-10
0.0025974
3.67238e-10
0.0025974
1.22311e-10
0.0025974
-3.18924e-10
0.0025974
-1.672e-10
0.0025974
-8.11866e-12
0.0025974
3.45526e-10
0.0025974
2.98845e-11
0.0025974
-1.16501e-10
0.0025974
-2.2448e-10
0.0025974
7.22681e-11
0.0025974
1.18636e-10
0.0025974
1.61993e-10
0.0025974
-1.5291e-10
0.0025974
7.47437e-11
0.0025974
-2.95945e-11
0.0025974
1.27201e-10
0.0025974
-9.92847e-11
0.0025974
5.34099e-11
0.0025974
3.61167e-12
0.0025974
1.51543e-10
0.0025974
-2.90026e-11
0.0025974
1.36874e-10
0.0025974
-1.20488e-11
0.0025974
1.55421e-10
0.0025974
1.62459e-10
0.0025974
2.69803e-10
0.0025974
1.41887e-10
0.0025974
1.51764e-10
0.0025974
2.21095e-11
0.0025974
2.86664e-10
0.0025974
1.98403e-10
0.0025974
1.76213e-10
0.0025974
1.25215e-10
0.0025974
3.60697e-10
0.0025974
4.11192e-10
0.0025974
6.9322e-10
0.0025974
7.67586e-10
0.0025974
1.19651e-09
0.0025974
1.74486e-09
0.00259739
2.54006e-09
0.00259739
3.43455e-09
0.00259739
5.04588e-09
0.00259738
7.1986e-09
0.00259737
1.02529e-08
0.00259735
1.42856e-08
0.00259733
1.98738e-08
0.00259731
2.64711e-08
0.00259727
3.39879e-08
0.00259724
3.78456e-08
0.0025972
3.3679e-08
0.00259718
2.28751e-08
0.00259708
1.01947e-07
0.00259638
6.96672e-07
0.00259378
2.604e-06
-1.18893e-06
0.0045679
0.00259764
0.00437567
0.00040528
0.00434684
4.11979e-05
0.00434304
6.32681e-06
0.00434602
-5.65706e-06
0.00434445
2.87057e-06
0.00434278
2.80028e-06
0.00434053
3.86483e-06
0.00433868
3.11875e-06
0.00433703
2.78528e-06
0.00433567
2.27253e-06
0.00433452
1.92833e-06
0.00433356
1.60695e-06
0.00433275
1.35636e-06
0.00433207
1.13888e-06
0.0043315
9.54317e-07
0.00433102
7.9646e-07
0.00433062
6.6121e-07
0.00433029
5.45196e-07
0.00433002
4.45446e-07
0.0043298
3.62119e-07
0.00432962
2.91279e-07
0.00432948
2.32408e-07
0.00432937
1.82768e-07
0.00432928
1.43504e-07
0.00432921
1.11286e-07
0.00432916
8.53338e-08
0.00432912
6.4555e-08
0.00432909
4.94665e-08
0.00432907
3.69433e-08
0.00432905
2.79825e-08
0.00432904
2.00828e-08
0.00432903
1.4824e-08
0.00432902
1.0983e-08
0.00432902
8.58697e-09
0.00432901
5.45666e-09
0.00432901
4.00357e-09
0.00432901
2.78396e-09
0.00432901
2.5331e-09
0.00432901
1.51894e-09
0.00432901
1.66768e-09
0.004329
8.05205e-10
0.004329
7.83048e-10
0.004329
1.10616e-10
0.004329
5.79923e-10
0.004329
3.88253e-10
0.004329
5.35897e-10
0.004329
-7.77639e-11
0.004329
1.15445e-10
0.004329
-1.26346e-10
0.004329
4.29005e-10
0.004329
1.13509e-11
0.004329
9.81089e-11
0.004329
-2.14627e-10
0.004329
1.84317e-10
0.004329
-3.88905e-12
0.004329
2.30583e-10
0.004329
-2.61582e-10
0.004329
1.1339e-10
0.004329
-1.71591e-10
0.004329
1.18466e-10
0.004329
-2.81048e-10
0.004329
-1.78252e-11
0.004329
-1.91694e-10
0.004329
1.26315e-10
0.00432901
-2.11798e-10
0.00432901
1.57795e-10
0.00432901
-1.19225e-11
0.00432901
3.12553e-10
0.004329
1.76322e-10
0.004329
4.42379e-10
0.004329
2.57934e-10
0.004329
4.29312e-10
0.004329
8.18956e-11
0.004329
4.183e-10
0.004329
2.49661e-10
0.004329
3.67043e-10
0.004329
2.71688e-10
0.004329
7.39588e-10
0.004329
8.65848e-10
0.004329
1.55728e-09
0.004329
1.95938e-09
0.004329
3.00333e-09
0.004329
4.28261e-09
0.00432899
6.36482e-09
0.00432899
8.79301e-09
0.00432898
1.275e-08
0.00432897
1.80975e-08
0.00432895
2.58032e-08
0.00432893
3.59773e-08
0.0043289
5.00244e-08
0.00432886
6.68929e-08
0.00432881
8.69465e-08
0.00432874
1.00766e-07
0.00432867
1.05469e-07
0.00432858
1.11875e-07
0.00432826
4.18058e-07
0.00432693
2.02954e-06
0.00432235
7.18567e-06
7.91295e-06
0.00507231
0.00252533
0.00495575
0.000521843
0.00492305
7.38936e-05
0.00492078
8.59961e-06
0.00492259
-7.47102e-06
0.00492142
4.04185e-06
0.00491972
4.49836e-06
0.00491761
5.97682e-06
0.0049158
4.93147e-06
0.0049142
4.38181e-06
0.00491287
3.59897e-06
0.00491175
3.05341e-06
0.0049108
2.55217e-06
0.00491
2.1569e-06
0.00490933
1.81569e-06
0.00490875
1.52545e-06
0.00490827
1.27611e-06
0.00490787
1.06237e-06
0.00490754
8.79269e-07
0.00490726
7.20722e-07
0.00490704
5.87231e-07
0.00490686
4.73654e-07
0.00490671
3.79416e-07
0.00490659
2.9973e-07
0.0049065
2.35504e-07
0.00490643
1.83111e-07
0.00490638
1.41273e-07
0.00490633
1.07304e-07
0.0049063
8.22159e-08
0.00490628
6.15648e-08
0.00490626
4.68478e-08
0.00490624
3.4077e-08
0.00490623
2.49716e-08
0.00490623
1.80905e-08
0.00490622
1.42441e-08
0.00490622
9.4683e-09
0.00490621
6.81241e-09
0.00490621
4.50099e-09
0.00490621
4.12379e-09
0.00490621
2.71375e-09
0.00490621
2.69009e-09
0.00490621
1.46346e-09
0.00490621
1.44085e-09
0.0049062
4.96737e-10
0.0049062
9.15199e-10
0.0049062
5.62362e-10
0.0049062
9.69027e-10
0.0049062
2.07081e-10
0.0049062
3.42784e-10
0.0049062
-2.37889e-10
0.0049062
4.70161e-10
0.0049062
1.75212e-11
0.0049062
2.21411e-10
0.00490621
-2.88279e-10
0.00490621
1.76124e-10
0.00490621
-1.47743e-10
0.00490621
2.63941e-10
0.00490621
-3.59553e-10
0.00490621
5.49471e-11
0.00490621
-2.64113e-10
0.00490621
1.67278e-10
0.00490621
-3.44482e-10
0.00490621
-9.55609e-11
0.00490621
-3.83607e-10
0.00490621
1.22368e-10
0.00490621
-2.62182e-10
0.00490621
1.56857e-10
0.00490621
-1.75419e-11
0.00490621
4.92609e-10
0.00490621
3.2488e-10
0.00490621
7.14988e-10
0.00490621
4.57114e-10
0.0049062
7.61323e-10
0.0049062
3.0616e-10
0.0049062
6.49491e-10
0.0049062
4.16891e-10
0.0049062
6.38927e-10
0.0049062
5.4427e-10
0.0049062
1.21158e-09
0.0049062
1.46594e-09
0.0049062
2.50735e-09
0.0049062
3.31666e-09
0.0049062
4.97823e-09
0.0049062
7.00495e-09
0.00490619
1.03518e-08
0.00490619
1.43873e-08
0.00490618
2.06623e-08
0.00490617
2.92222e-08
0.00490615
4.15792e-08
0.00490613
5.79359e-08
0.0049061
8.05245e-08
0.00490606
1.08176e-07
0.004906
1.42593e-07
0.00490593
1.71265e-07
0.00490583
2.01912e-07
0.00490569
2.57689e-07
0.00490521
8.92501e-07
0.00490359
3.64996e-06
0.00489775
1.30298e-05
2.2743e-05
0.00521017
0.00231516
0.00513985
0.000592165
0.00511276
0.000100985
0.00511162
9.73744e-06
0.0051127
-8.55483e-06
0.00511186
4.88057e-06
0.00511038
5.98023e-06
0.00510861
7.74754e-06
0.00510705
6.49296e-06
0.00510568
5.75255e-06
0.00510453
4.74839e-06
0.00510355
4.03021e-06
0.00510273
3.37717e-06
0.00510202
2.858e-06
0.00510143
2.41205e-06
0.00510092
2.03041e-06
0.0051005
1.7029e-06
0.00510014
1.42124e-06
0.00509984
1.17979e-06
0.00509959
9.7001e-07
0.00509938
7.922e-07
0.00509922
6.40639e-07
0.00509908
5.14803e-07
0.00509897
4.08187e-07
0.00509889
3.21241e-07
0.00509882
2.50363e-07
0.00509877
1.93975e-07
0.00509873
1.47901e-07
0.0050987
1.13369e-07
0.00509867
8.5089e-08
0.00509866
6.4863e-08
0.00509864
4.77191e-08
0.00509863
3.50123e-08
0.00509862
2.50489e-08
0.00509862
1.95662e-08
0.00509862
1.3457e-08
0.00509861
9.74638e-09
0.00509861
6.33259e-09
0.00509861
5.62427e-09
0.00509861
3.95757e-09
0.00509861
3.8249e-09
0.00509861
2.23319e-09
0.00509861
2.04033e-09
0.0050986
8.72644e-10
0.0050986
1.2966e-09
0.0050986
8.23784e-10
0.0050986
1.34392e-09
0.0050986
4.29104e-10
0.0050986
5.00231e-10
0.0050986
-3.22726e-10
0.0050986
4.56812e-10
0.0050986
-1.37178e-11
0.00509861
2.4801e-10
0.00509861
-3.92954e-10
0.00509861
1.30206e-10
0.00509861
-2.59839e-10
0.00509861
2.96598e-10
0.00509861
-4.07249e-10
0.00509861
1.61698e-11
0.00509861
-3.02793e-10
0.00509861
2.7218e-10
0.00509861
-3.1842e-10
0.00509861
-1.26376e-10
0.00509861
-5.64705e-10
0.00509861
9.15918e-11
0.00509861
-2.51461e-10
0.00509861
2.04991e-10
0.00509861
-1.88983e-12
0.00509861
6.70489e-10
0.00509861
5.55272e-10
0.00509861
1.08133e-09
0.00509861
7.67208e-10
0.0050986
1.13481e-09
0.0050986
6.08204e-10
0.0050986
9.68348e-10
0.0050986
6.90825e-10
0.0050986
9.52267e-10
0.0050986
8.32214e-10
0.0050986
1.6722e-09
0.0050986
2.10391e-09
0.0050986
3.44859e-09
0.0050986
4.62596e-09
0.0050986
6.84888e-09
0.0050986
9.57683e-09
0.00509859
1.40669e-08
0.00509859
1.95726e-08
0.00509858
2.78926e-08
0.00509857
3.92907e-08
0.00509856
5.57843e-08
0.00509854
7.76946e-08
0.00509851
1.08021e-07
0.00509847
1.45823e-07
0.00509842
1.95176e-07
0.00509835
2.427e-07
0.00509823
3.13481e-07
0.00509805
4.42836e-07
0.00509748
1.46035e-06
0.00509583
5.30347e-06
0.00508956
1.92947e-05
3.78197e-05
0.00523351
0.00208165
0.00519441
0.000631264
0.00517374
0.00012165
0.00517343
1.00558e-05
0.00517406
-9.18451e-06
0.00517353
5.40154e-06
0.00517234
7.17127e-06
0.00517096
9.13604e-06
0.0051697
7.74356e-06
0.0051686
6.85215e-06
0.00516767
5.67809e-06
0.00516688
4.82371e-06
0.00516621
4.05133e-06
0.00516563
3.43317e-06
0.00516514
2.9018e-06
0.00516472
2.44958e-06
0.00516437
2.05951e-06
0.00516406
1.72288e-06
0.00516381
1.43389e-06
0.0051636
1.18237e-06
0.00516342
9.67937e-07
0.00516328
7.84532e-07
0.00516316
6.3201e-07
0.00516307
5.02751e-07
0.00516299
3.96699e-07
0.00516293
3.09829e-07
0.00516289
2.4072e-07
0.00516285
1.84144e-07
0.00516282
1.41306e-07
0.0051628
1.06337e-07
0.00516279
8.11602e-08
0.00516277
6.01642e-08
0.00516276
4.43165e-08
0.00516276
3.14548e-08
0.00516275
2.42884e-08
0.00516275
1.70794e-08
0.00516275
1.25756e-08
0.00516274
8.20449e-09
0.00516274
6.99924e-09
0.00516274
5.02538e-09
0.00516274
4.83715e-09
0.00516274
2.99874e-09
0.00516274
2.66513e-09
0.00516274
1.30314e-09
0.00516274
1.64878e-09
0.00516274
1.03089e-09
0.00516274
1.65674e-09
0.00516274
6.45704e-10
0.00516274
6.59035e-10
0.00516274
-3.85694e-10
0.00516274
3.74199e-10
0.00516274
-1.03935e-10
0.00516274
2.26326e-10
0.00516274
-5.04243e-10
0.00516274
6.2808e-11
0.00516274
-3.73469e-10
0.00516274
3.04931e-10
0.00516274
-4.06851e-10
0.00516274
4.30669e-11
0.00516274
-3.11652e-10
0.00516274
3.71325e-10
0.00516274
-2.57804e-10
0.00516274
-1.1669e-10
0.00516274
-7.25611e-10
0.00516274
1.14784e-11
0.00516274
-2.82513e-10
0.00516274
2.53745e-10
0.00516274
3.33608e-11
0.00516274
8.32661e-10
0.00516274
7.72843e-10
0.00516274
1.42836e-09
0.00516274
1.10725e-09
0.00516274
1.5316e-09
0.00516274
9.29792e-10
0.00516274
1.27943e-09
0.00516274
9.55281e-10
0.00516274
1.24204e-09
0.00516274
1.09256e-09
0.00516274
2.05397e-09
0.00516274
2.65458e-09
0.00516273
4.27225e-09
0.00516273
5.7843e-09
0.00516273
8.49942e-09
0.00516273
1.18243e-08
0.00516273
1.7282e-08
0.00516272
2.40601e-08
0.00516272
3.40915e-08
0.00516271
4.78303e-08
0.0051627
6.77589e-08
0.00516268
9.43642e-08
0.00516265
1.31378e-07
0.00516262
1.7833e-07
0.00516257
2.42438e-07
0.00516251
3.11515e-07
0.00516239
4.31923e-07
0.00516218
6.50124e-07
0.0051616
2.04459e-06
0.00516003
6.87034e-06
0.00515414
2.51791e-05
5.09514e-05
0.00522276
0.00185889
0.00520674
0.000647288
0.00519201
0.000136376
0.00519225
9.8241e-06
0.0051926
-9.54033e-06
0.00519236
5.64514e-06
0.00519147
8.0559e-06
0.00519047
1.01439e-05
0.00518953
8.67828e-06
0.00518871
7.67568e-06
0.005188
6.38254e-06
0.0051874
5.42839e-06
0.00518688
4.56923e-06
0.00518644
3.87749e-06
0.00518605
3.28309e-06
0.00518573
2.77792e-06
0.00518544
2.34117e-06
0.0051852
1.96289e-06
0.005185
1.63746e-06
0.00518483
1.35384e-06
0.00518469
1.11091e-06
0.00518457
9.02356e-07
0.00518447
7.28531e-07
0.0051844
5.81302e-07
0.00518433
4.59524e-07
0.00518428
3.59489e-07
0.00518424
2.80122e-07
0.00518421
2.14919e-07
0.00518419
1.65155e-07
0.00518417
1.24597e-07
0.00518416
9.51677e-08
0.00518415
7.08872e-08
0.00518414
5.24452e-08
0.00518413
3.71023e-08
0.00518413
2.83471e-08
0.00518412
2.0172e-08
0.00518412
1.50927e-08
0.00518412
9.95664e-09
0.00518412
8.2291e-09
0.00518412
5.93764e-09
0.00518412
5.724e-09
0.00518412
3.72837e-09
0.00518412
3.25649e-09
0.00518412
1.74547e-09
0.00518412
1.99157e-09
0.00518412
1.21548e-09
0.00518412
1.91517e-09
0.00518412
8.41552e-10
0.00518412
7.87619e-10
0.00518412
-4.43106e-10
0.00518412
2.67692e-10
0.00518412
-2.00867e-10
0.00518412
1.75606e-10
0.00518412
-6.53323e-10
0.00518412
-5.59539e-11
0.00518412
-4.80718e-10
0.00518412
3.17558e-10
0.00518412
-3.66179e-10
0.00518412
1.05995e-10
0.00518412
-3.06378e-10
0.00518412
4.51578e-10
0.00518412
-1.742e-10
0.00518412
-6.68537e-11
0.00518412
-8.5145e-10
0.00518412
-9.04465e-11
0.00518412
-3.28779e-10
0.00518412
3.13787e-10
0.00518412
1.01351e-10
0.00518412
9.90505e-10
0.00518412
9.85282e-10
0.00518412
1.76147e-09
0.00518412
1.46978e-09
0.00518412
1.94453e-09
0.00518412
1.26626e-09
0.00518411
1.57679e-09
0.00518411
1.21396e-09
0.00518411
1.52077e-09
0.00518411
1.33708e-09
0.00518411
2.3615e-09
0.00518411
3.10468e-09
0.00518411
4.95891e-09
0.00518411
6.76168e-09
0.00518411
9.88819e-09
0.00518411
1.36875e-08
0.00518411
1.99046e-08
0.0051841
2.77226e-08
0.0051841
3.91005e-08
0.00518409
5.4672e-08
0.00518408
7.72891e-08
0.00518407
1.07657e-07
0.00518405
1.50215e-07
0.00518402
2.05143e-07
0.00518398
2.8327e-07
0.00518392
3.74382e-07
0.0051838
5.49307e-07
0.00518359
8.60761e-07
0.00518302
2.61506e-06
0.00518164
8.24937e-06
0.00517659
3.02245e-05
6.15847e-05
0.00520407
0.00165482
0.00520563
0.000645731
0.00519623
0.000145771
0.00519682
9.2359e-06
0.005197
-9.71707e-06
0.00519699
5.65294e-06
0.0051964
8.6431e-06
0.00519575
1.07955e-05
0.00519512
9.30989e-06
0.00519456
8.23458e-06
0.00519408
6.8688e-06
0.00519365
5.84957e-06
0.00519329
4.93434e-06
0.00519297
4.19345e-06
0.0051927
3.55701e-06
0.00519246
3.01584e-06
0.00519226
2.54725e-06
0.00519208
2.14021e-06
0.00519193
1.78917e-06
0.0051918
1.48281e-06
0.00519169
1.21944e-06
0.0051916
9.92507e-07
0.00519153
8.028e-07
0.00519147
6.42236e-07
0.00519142
5.08765e-07
0.00519138
3.98626e-07
0.00519135
3.11284e-07
0.00519132
2.39515e-07
0.0051913
1.84331e-07
0.00519129
1.39363e-07
0.00519128
1.06456e-07
0.00519127
7.95787e-08
0.00519126
5.915e-08
0.00519126
4.18909e-08
0.00519125
3.16183e-08
0.00519125
2.26473e-08
0.00519125
1.71529e-08
0.00519125
1.14933e-08
0.00519124
9.29863e-09
0.00519124
6.69722e-09
0.00519124
6.4274e-09
0.00519124
4.36171e-09
0.00519124
3.77246e-09
0.00519124
2.19323e-09
0.00519124
2.33227e-09
0.00519124
1.37909e-09
0.00519124
2.08191e-09
0.00519124
1.00164e-09
0.00519124
8.9245e-10
0.00519124
-4.76552e-10
0.00519124
1.30313e-10
0.00519124
-3.16116e-10
0.00519124
9.44195e-11
0.00519124
-8.12612e-10
0.00519124
-2.14447e-10
0.00519124
-5.77318e-10
0.00519124
3.28742e-10
0.00519124
-2.90848e-10
0.00519124
1.92216e-10
0.00519124
-2.83572e-10
0.00519124
4.9368e-10
0.00519124
-8.82568e-11
0.00519124
5.06164e-12
0.00519124
-9.31132e-10
0.00519124
-2.07359e-10
0.00519124
-3.84486e-10
0.00519124
3.70612e-10
0.00519124
2.10077e-10
0.00519124
1.15233e-09
0.00519124
1.19568e-09
0.00519124
2.06442e-09
0.00519124
1.83599e-09
0.00519124
2.35738e-09
0.00519124
1.61755e-09
0.00519124
1.84964e-09
0.00519124
1.45763e-09
0.00519124
1.77817e-09
0.00519124
1.56915e-09
0.00519124
2.59756e-09
0.00519124
3.44753e-09
0.00519124
5.48687e-09
0.00519124
7.53595e-09
0.00519124
1.09833e-08
0.00519124
1.5134e-08
0.00519123
2.18814e-08
0.00519123
3.0442e-08
0.00519123
4.2882e-08
0.00519122
5.97572e-08
0.00519121
8.43309e-08
0.0051912
1.17516e-07
0.00519119
1.64421e-07
0.00519117
2.26003e-07
0.00519114
3.16782e-07
0.00519108
4.29568e-07
0.00519097
6.58934e-07
0.00519077
1.06107e-06
0.00519025
3.13271e-06
0.00518912
9.38235e-06
0.00518512
3.42206e-05
6.9622e-05
0.00518545
0.00146937
0.00520065
0.000630531
0.00519597
0.000150448
0.00519677
8.43759e-06
0.00519681
-9.75684e-06
0.00519699
5.47052e-06
0.00519668
8.95268e-06
0.00519636
1.11215e-05
0.00519601
9.65853e-06
0.0051957
8.54591e-06
0.00519542
7.14885e-06
0.00519517
6.0966e-06
0.00519495
5.15342e-06
0.00519476
4.386e-06
0.00519459
3.72664e-06
0.00519444
3.16562e-06
0.00519431
2.67903e-06
0.00519419
2.2554e-06
0.00519409
1.88911e-06
0.00519401
1.56897e-06
0.00519394
1.29297e-06
0.00519387
1.05435e-06
0.00519382
8.54174e-07
0.00519378
6.84856e-07
0.00519375
5.43671e-07
0.00519372
4.26636e-07
0.00519369
3.33691e-07
0.00519368
2.57437e-07
0.00519366
1.98417e-07
0.00519365
1.50284e-07
0.00519364
1.1473e-07
0.00519364
8.60254e-08
0.00519363
6.42513e-08
0.00519363
4.55937e-08
0.00519362
3.40387e-08
0.00519362
2.44028e-08
0.00519362
1.86014e-08
0.00519362
1.27232e-08
0.00519362
1.01779e-08
0.00519362
7.31232e-09
0.00519362
6.93241e-09
0.00519362
4.85834e-09
0.00519362
4.17494e-09
0.00519362
2.6201e-09
0.00519362
2.6748e-09
0.00519362
1.54068e-09
0.00519362
2.14753e-09
0.00519362
1.10487e-09
0.00519362
9.74039e-10
0.00519362
-4.72147e-10
0.00519362
-3.53198e-11
0.00519362
-4.6211e-10
0.00519362
-1.814e-11
0.00519362
-9.49801e-10
0.00519362
-3.86592e-10
0.00519362
-6.63207e-10
0.00519362
3.2739e-10
0.00519362
-1.95816e-10
0.00519362
2.87262e-10
0.00519362
-2.41274e-10
0.00519362
4.90481e-10
0.00519362
-2.72489e-11
0.00519362
7.23724e-11
0.00519362
-9.62367e-10
0.00519362
-3.26843e-10
0.00519362
-4.40926e-10
0.00519362
4.11371e-10
0.00519362
3.52081e-10
0.00519362
1.32503e-09
0.00519362
1.41157e-09
0.00519362
2.33187e-09
0.00519362
2.18539e-09
0.00519362
2.75016e-09
0.00519362
1.98034e-09
0.00519362
2.09818e-09
0.00519362
1.67864e-09
0.00519361
2.00166e-09
0.00519361
1.7852e-09
0.00519361
2.77415e-09
0.00519361
3.68919e-09
0.00519361
5.84763e-09
0.00519361
8.09056e-09
0.00519361
1.17688e-08
0.00519361
1.61411e-08
0.00519361
2.32007e-08
0.00519361
3.22039e-08
0.00519361
4.52984e-08
0.0051936
6.3099e-08
0.0051936
8.89171e-08
0.00519359
1.23978e-07
0.00519358
1.73986e-07
0.00519357
2.40748e-07
0.00519354
3.42296e-07
0.0051935
4.74922e-07
0.0051934
7.5456e-07
0.00519322
1.23794e-06
0.00519279
3.56628e-06
0.00519193
1.02366e-05
0.00518908
3.70806e-05
7.50904e-05
0.00516897
0.00130039
0.00519495
0.000604554
0.00519442
0.000150979
0.00519532
7.53893e-06
0.00519523
-9.6713e-06
0.00519556
5.14416e-06
0.0051955
9.00931e-06
0.00519547
1.11534e-05
0.00519538
9.74688e-06
0.0051953
8.62863e-06
0.00519521
7.23668e-06
0.00519513
6.18038e-06
0.00519505
5.2347e-06
0.00519497
4.46133e-06
0.0051949
3.79649e-06
0.00519484
3.23056e-06
0.00519478
2.73887e-06
0.00519472
2.30999e-06
0.00519468
1.93826e-06
0.00519463
1.61281e-06
0.00519459
1.3316e-06
0.00519456
1.08781e-06
0.00519453
8.82494e-07
0.00519451
7.08877e-07
0.00519449
5.63841e-07
0.00519447
4.43154e-07
0.00519446
3.47049e-07
0.00519445
2.68358e-07
0.00519444
2.07142e-07
0.00519443
1.5714e-07
0.00519443
1.19812e-07
0.00519442
9.00402e-08
0.00519442
6.75608e-08
0.00519442
4.81711e-08
0.00519441
3.56318e-08
0.00519441
2.54203e-08
0.00519441
1.94097e-08
0.00519441
1.35547e-08
0.00519441
1.08031e-08
0.00519441
7.74543e-09
0.00519441
7.22003e-09
0.00519441
5.19541e-09
0.00519441
4.45324e-09
0.00519441
2.98707e-09
0.00519441
3.00695e-09
0.00519441
1.71482e-09
0.00519441
2.13328e-09
0.00519441
1.13313e-09
0.00519441
1.02869e-09
0.00519441
-4.26844e-10
0.00519441
-2.16259e-10
0.00519441
-6.47622e-10
0.00519441
-1.59718e-10
0.00519441
-1.03777e-09
0.00519441
-5.3774e-10
0.00519441
-7.44225e-10
0.00519441
2.99832e-10
0.00519441
-1.01154e-10
0.00519441
3.82671e-10
0.00519441
-1.82886e-10
0.00519441
4.47686e-10
0.00519441
-1.66019e-11
0.00519441
1.08496e-10
0.00519441
-9.54616e-10
0.00519441
-4.33336e-10
0.00519441
-4.91029e-10
0.00519441
4.33417e-10
0.00519441
5.13799e-10
0.00519441
1.51408e-09
0.00519441
1.63582e-09
0.00519441
2.56561e-09
0.00519441
2.49981e-09
0.00519441
3.10627e-09
0.00519441
2.34408e-09
0.00519441
2.32688e-09
0.00519441
1.86849e-09
0.00519441
2.1812e-09
0.00519441
1.97446e-09
0.00519441
2.9018e-09
0.00519441
3.83428e-09
0.00519441
6.04115e-09
0.00519441
8.39861e-09
0.00519441
1.22019e-08
0.0051944
1.66985e-08
0.0051944
2.38182e-08
0.0051944
3.30689e-08
0.0051944
4.64618e-08
0.0051944
6.47065e-08
0.0051944
9.11004e-08
0.00519439
1.27116e-07
0.00519439
1.78949e-07
0.00519438
2.49268e-07
0.00519436
3.59178e-07
0.00519433
5.08437e-07
0.00519425
8.30686e-07
0.00519411
1.38045e-06
0.00519378
3.89375e-06
0.00519323
1.07932e-05
0.00519153
3.87814e-05
7.80852e-05
0.00515491
0.00114548
0.00518952
0.000569949
0.00519263
0.00014787
0.00519355
6.61617e-06
0.00519333
-9.45679e-06
0.00519376
4.71686e-06
0.00519393
8.83954e-06
0.00519416
1.09219e-05
0.00519431
9.59818e-06
0.00519444
8.50228e-06
0.00519453
7.14723e-06
0.0051946
6.11268e-06
0.00519464
5.18728e-06
0.00519468
4.42657e-06
0.0051947
3.77205e-06
0.00519472
3.21483e-06
0.00519473
2.73e-06
0.00519473
2.30634e-06
0.00519473
1.93831e-06
0.00519473
1.61552e-06
0.00519472
1.33609e-06
0.00519472
1.0933e-06
0.00519471
8.88045e-07
0.00519471
7.14428e-07
0.0051947
5.69264e-07
0.0051947
4.48102e-07
0.00519469
3.51293e-07
0.00519469
2.72131e-07
0.00519469
2.10379e-07
0.00519468
1.59847e-07
0.00519468
1.21678e-07
0.00519468
9.15377e-08
0.00519468
6.89823e-08
0.00519468
4.94606e-08
0.00519468
3.62951e-08
0.00519467
2.57119e-08
0.00519467
1.96018e-08
0.00519467
1.39522e-08
0.00519467
1.11699e-08
0.00519467
8.0216e-09
0.00519467
7.3452e-09
0.00519467
5.38649e-09
0.00519467
4.61344e-09
0.00519467
3.25372e-09
0.00519467
3.29427e-09
0.00519467
1.89638e-09
0.00519467
2.07274e-09
0.00519467
1.07967e-09
0.00519467
1.04408e-09
0.00519467
-3.49689e-10
0.00519467
-3.90925e-10
0.00519467
-8.73871e-10
0.00519467
-3.25861e-10
0.00519467
-1.07338e-09
0.00519467
-6.37445e-10
0.00519467
-8.23266e-10
0.00519467
2.38377e-10
0.00519467
-2.75038e-11
0.00519467
4.75982e-10
0.00519467
-1.13169e-10
0.00519467
3.80479e-10
0.00519467
-6.34109e-11
0.00519467
1.08321e-10
0.00519467
-9.14115e-10
0.00519467
-4.976e-10
0.00519467
-5.17262e-10
0.00519467
4.45361e-10
0.00519467
6.72592e-10
0.00519467
1.71646e-09
0.00519467
1.87322e-09
0.00519467
2.77665e-09
0.00519467
2.76878e-09
0.00519467
3.41518e-09
0.00519467
2.6956e-09
0.00519467
2.54453e-09
0.00519467
2.02563e-09
0.00519467
2.31229e-09
0.00519467
2.1193e-09
0.00519467
2.97622e-09
0.00519467
3.88693e-09
0.00519467
6.06397e-09
0.00519467
8.48203e-09
0.00519467
1.23122e-08
0.00519467
1.6817e-08
0.00519467
2.38243e-08
0.00519467
3.30454e-08
0.00519467
4.64017e-08
0.00519467
6.46301e-08
0.00519467
9.09625e-08
0.00519467
1.27039e-07
0.00519467
1.79404e-07
0.00519467
2.51529e-07
0.00519466
3.66928e-07
0.00519464
5.2851e-07
0.00519459
8.82929e-07
0.00519449
1.48039e-06
0.00519428
4.10043e-06
0.00519403
1.10436e-05
0.00519347
3.93415e-05
7.8747e-05
0.00514306
0.00100242
0.00518462
0.000528389
0.00519092
0.000141572
0.00519182
5.71753e-06
0.00519147
-9.10424e-06
0.00519196
4.22615e-06
0.00519233
8.47018e-06
0.00519279
1.04567e-05
0.00519315
9.23562e-06
0.00519347
8.18659e-06
0.00519372
6.89594e-06
0.00519393
5.90588e-06
0.00519409
5.02091e-06
0.00519423
4.28958e-06
0.00519434
3.65959e-06
0.00519444
3.12337e-06
0.00519451
2.65635e-06
0.00519457
2.24752e-06
0.00519462
1.89161e-06
0.00519465
1.57886e-06
0.00519468
1.30771e-06
0.0051947
1.0717e-06
0.00519472
8.71517e-07
0.00519473
7.02021e-07
0.00519474
5.60273e-07
0.00519475
4.41668e-07
0.00519475
3.46557e-07
0.00519475
2.688e-07
0.00519476
2.0813e-07
0.00519476
1.58425e-07
0.00519476
1.204e-07
0.00519476
9.05213e-08
0.00519476
6.84533e-08
0.00519476
4.93687e-08
0.00519476
3.60603e-08
0.00519476
2.53252e-08
0.00519476
1.9201e-08
0.00519476
1.38594e-08
0.00519476
1.12074e-08
0.00519476
8.07952e-09
0.00519476
7.31372e-09
0.00519476
5.44973e-09
0.00519476
4.67018e-09
0.00519476
3.40188e-09
0.00519476
3.51292e-09
0.00519476
2.08093e-09
0.00519476
2.00178e-09
0.00519476
9.51099e-10
0.00519476
9.98257e-10
0.00519476
-2.64328e-10
0.00519476
-5.24347e-10
0.00519476
-1.12099e-09
0.00519476
-5.09532e-10
0.00519476
-1.06696e-09
0.00519476
-6.64307e-10
0.00519476
-8.90302e-10
0.00519476
1.45368e-10
0.00519476
1.01785e-11
0.00519476
5.60344e-10
0.00519476
-3.22083e-11
0.00519476
3.07284e-10
0.00519476
-1.64564e-10
0.00519476
5.79044e-11
0.00519476
-8.66902e-10
0.00519476
-5.1284e-10
0.00519476
-5.07421e-10
0.00519476
4.68765e-10
0.00519476
8.26557e-10
0.00519476
1.93393e-09
0.00519476
2.12813e-09
0.00519476
2.98159e-09
0.00519476
2.99121e-09
0.00519476
3.67002e-09
0.00519476
3.02127e-09
0.00519476
2.75977e-09
0.00519476
2.16048e-09
0.00519476
2.40709e-09
0.00519476
2.22273e-09
0.00519476
3.00755e-09
0.00519476
3.85866e-09
0.00519476
5.92966e-09
0.00519476
8.31521e-09
0.00519476
1.20825e-08
0.00519476
1.64976e-08
0.00519476
2.32575e-08
0.00519476
3.21896e-08
0.00519476
4.51701e-08
0.00519476
6.29419e-08
0.00519477
8.86119e-08
0.00519477
1.23895e-07
0.00519477
1.75508e-07
0.00519478
2.47589e-07
0.00519478
3.65247e-07
0.00519477
5.3401e-07
0.00519475
9.08159e-07
0.00519469
1.53217e-06
0.00519462
4.17794e-06
0.00519467
1.09876e-05
0.00519521
3.88081e-05
7.72443e-05
0.00513313
0.000869291
0.00518032
0.000481202
0.0051894
0.000132489
0.00519025
4.87008e-06
0.00518975
-8.60514e-06
0.00519027
3.70305e-06
0.00519081
7.92734e-06
0.00519149
9.78596e-06
0.00519204
8.68209e-06
0.00519252
7.70118e-06
0.00519292
6.49859e-06
0.00519325
5.57283e-06
0.00519353
4.7459e-06
0.00519376
4.05882e-06
0.00519395
3.46605e-06
0.00519412
2.9618e-06
0.00519425
2.52248e-06
0.00519436
2.13723e-06
0.00519445
1.80111e-06
0.00519452
1.50518e-06
0.00519458
1.24827e-06
0.00519463
1.02435e-06
0.00519467
8.33953e-07
0.0051947
6.72484e-07
0.00519472
5.37476e-07
0.00519474
4.24268e-07
0.00519475
3.33162e-07
0.00519476
2.58585e-07
0.00519477
2.00519e-07
0.00519477
1.52968e-07
0.00519478
1.16106e-07
0.00519478
8.70826e-08
0.00519478
6.59837e-08
0.00519479
4.78547e-08
0.00519479
3.49205e-08
0.00519479
2.43117e-08
0.00519479
1.82879e-08
0.00519479
1.33065e-08
0.00519479
1.09266e-08
0.00519479
7.92958e-09
0.00519479
7.13863e-09
0.00519479
5.39637e-09
0.00519479
4.6296e-09
0.00519479
3.41417e-09
0.00519479
3.62395e-09
0.00519479
2.23672e-09
0.00519479
1.94454e-09
0.00519479
7.7257e-10
0.00519479
8.79106e-10
0.00519479
-1.96945e-10
0.00519479
-6.04413e-10
0.00519479
-1.36056e-09
0.00519479
-7.15569e-10
0.00519479
-1.04483e-09
0.00519479
-6.21426e-10
0.00519479
-9.29266e-10
0.00519479
3.02211e-11
0.00519479
4.63238e-12
0.00519479
6.27678e-10
0.00519479
5.381e-11
0.00519479
2.5416e-10
0.00519479
-2.82415e-10
0.00519479
-2.0752e-11
0.00519479
-8.1615e-10
0.00519479
-4.70492e-10
0.00519479
-4.43164e-10
0.00519479
5.14926e-10
0.00519479
9.6421e-10
0.00519479
2.15203e-09
0.00519479
2.39781e-09
0.00519479
3.19373e-09
0.00519479
3.17292e-09
0.00519479
3.86425e-09
0.00519479
3.30585e-09
0.00519479
2.97245e-09
0.00519479
2.27826e-09
0.00519479
2.46271e-09
0.00519479
2.27033e-09
0.00519479
2.984e-09
0.00519479
3.7494e-09
0.00519479
5.67681e-09
0.00519479
7.93587e-09
0.00519479
1.15359e-08
0.00519479
1.57579e-08
0.00519479
2.2145e-08
0.00519479
3.05667e-08
0.00519479
4.28496e-08
0.0051948
5.97381e-08
0.0051948
8.41777e-08
0.00519481
1.17859e-07
0.00519482
1.6747e-07
0.00519483
2.37614e-07
0.00519484
3.54074e-07
0.00519485
5.24327e-07
0.00519485
9.04524e-07
0.00519485
1.53266e-06
0.0051949
4.1235e-06
0.00519526
1.06331e-05
0.00519682
3.72496e-05
7.37633e-05
0.00512485
0.00074444
0.00517659
0.000429468
0.00518808
0.000120993
0.00518887
4.08588e-06
0.00518822
-7.95494e-06
0.00518875
3.17181e-06
0.00518944
7.23597e-06
0.00519029
8.93652e-06
0.00519101
7.96012e-06
0.00519165
7.06553e-06
0.00519217
5.97113e-06
0.00519262
5.12675e-06
0.00519299
4.37309e-06
0.00519331
3.74332e-06
0.00519358
3.19899e-06
0.0051938
2.73637e-06
0.00519399
2.33352e-06
0.00519415
1.97972e-06
0.00519428
1.67028e-06
0.00519439
1.3973e-06
0.00519448
1.16004e-06
0.00519455
9.53016e-07
0.0051946
7.76733e-07
0.00519465
6.26938e-07
0.00519469
5.01729e-07
0.00519471
3.96532e-07
0.00519473
3.11597e-07
0.00519475
2.41878e-07
0.00519476
1.87793e-07
0.00519477
1.4363e-07
0.00519478
1.08957e-07
0.00519478
8.13854e-08
0.00519479
6.16567e-08
0.00519479
4.49316e-08
0.00519479
3.28757e-08
0.0051948
2.27213e-08
0.0051948
1.69314e-08
0.0051948
1.23343e-08
0.0051948
1.03216e-08
0.0051948
7.56076e-09
0.0051948
6.81767e-09
0.0051948
5.2343e-09
0.0051948
4.50768e-09
0.0051948
3.30663e-09
0.0051948
3.61258e-09
0.0051948
2.33795e-09
0.0051948
1.90416e-09
0.0051948
5.71566e-10
0.0051948
6.81157e-10
0.0051948
-1.7086e-10
0.0051948
-6.28228e-10
0.0051948
-1.55608e-09
0.0051948
-9.35992e-10
0.0051948
-1.03475e-09
0.0051948
-5.27087e-10
0.0051948
-9.21591e-10
0.0051948
-8.95802e-11
0.0051948
-4.65571e-11
0.0051948
6.64984e-10
0.0051948
1.39611e-10
0.0051948
2.24165e-10
0.0051948
-3.97417e-10
0.0051948
-1.19433e-10
0.0051948
-7.79187e-10
0.0051948
-3.88167e-10
0.0051948
-3.17705e-10
0.0051948
6.04998e-10
0.0051948
1.08832e-09
0.0051948
2.35192e-09
0.0051948
2.6702e-09
0.0051948
3.41654e-09
0.0051948
3.32312e-09
0.0051948
3.99303e-09
0.0051948
3.53331e-09
0.0051948
3.17551e-09
0.0051948
2.38869e-09
0.0051948
2.49213e-09
0.0051948
2.2679e-09
0.0051948
2.9036e-09
0.0051948
3.56599e-09
0.0051948
5.31177e-09
0.0051948
7.36708e-09
0.0051948
1.07015e-08
0.0051948
1.4624e-08
0.0051948
2.05219e-08