/*--------------------------------*- C++ -*----------------------------------*\
| =========                 |                                                 |
| \\      /  F ield         | OpenFOAM: The Open Source CFD Toolbox           |
|  \\    /   O peration     | Version:  2.3.0                                 |
|   \\  /    A nd           | Web:      www.OpenFOAM.org                      |
|    \\/     M anipulation  |                                                 |
\*---------------------------------------------------------------------------*/
FoamFile
{
    version     2.0;
    format      ascii;
    class       volVectorField;
    location    "1";
    object      U;
}
// * * * * * * * * * * * * * * * * * * * * * * * * * * * * * * * * * * * * * //

dimensions      [0 1 -1 0 0 0 0];

internalField   nonuniform List<vector> 
4000
(
(0.537562 0.0563929 0)
(0.552214 0.00359482 0)
(0.517087 -0.00176416 0)
(0.522909 -0.00200078 0)
(0.521087 -0.00213041 0)
(0.522014 -0.00203723 0)
(0.5214 -0.00204424 0)
(0.521242 -0.00203432 0)
(0.52089 -0.00204381 0)
(0.520671 -0.00204756 0)
(0.520455 -0.00205309 0)
(0.520289 -0.00205678 0)
(0.520144 -0.00206025 0)
(0.520026 -0.00206285 0)
(0.519925 -0.00206498 0)
(0.519841 -0.00206674 0)
(0.519771 -0.00206822 0)
(0.519713 -0.00206947 0)
(0.519666 -0.00207052 0)
(0.519626 -0.0020714 0)
(0.519595 -0.00207212 0)
(0.519569 -0.00207272 0)
(0.519549 -0.00207321 0)
(0.519533 -0.00207363 0)
(0.51952 -0.00207395 0)
(0.51951 -0.00207422 0)
(0.519503 -0.00207443 0)
(0.519497 -0.00207459 0)
(0.519493 -0.00207471 0)
(0.51949 -0.00207481 0)
(0.519487 -0.00207488 0)
(0.519485 -0.00207494 0)
(0.519484 -0.00207498 0)
(0.519483 -0.00207501 0)
(0.519482 -0.00207502 0)
(0.519482 -0.00207505 0)
(0.519481 -0.00207506 0)
(0.519481 -0.00207507 0)
(0.519481 -0.00207507 0)
(0.519481 -0.00207507 0)
(0.519481 -0.00207507 0)
(0.519481 -0.00207509 0)
(0.519481 -0.00207509 0)
(0.51948 -0.00207509 0)
(0.51948 -0.00207508 0)
(0.51948 -0.00207509 0)
(0.51948 -0.00207509 0)
(0.51948 -0.00207509 0)
(0.51948 -0.00207509 0)
(0.51948 -0.00207509 0)
(0.51948 -0.00207508 0)
(0.519481 -0.00207509 0)
(0.519481 -0.00207509 0)
(0.519481 -0.00207509 0)
(0.519481 -0.00207509 0)
(0.519481 -0.00207509 0)
(0.51948 -0.00207509 0)
(0.51948 -0.00207509 0)
(0.51948 -0.00207509 0)
(0.51948 -0.00207509 0)
(0.51948 -0.00207509 0)
(0.51948 -0.00207509 0)
(0.51948 -0.00207509 0)
(0.51948 -0.00207509 0)
(0.519481 -0.00207509 0)
(0.519481 -0.00207509 0)
(0.519481 -0.00207509 0)
(0.519481 -0.00207509 0)
(0.519481 -0.00207509 0)
(0.519481 -0.00207509 0)
(0.519481 -0.00207508 0)
(0.51948 -0.00207509 0)
(0.51948 -0.00207509 0)
(0.51948 -0.00207509 0)
(0.51948 -0.00207508 0)
(0.51948 -0.00207509 0)
(0.51948 -0.00207509 0)
(0.51948 -0.00207509 0)
(0.51948 -0.00207508 0)
(0.51948 -0.00207508 0)
(0.51948 -0.00207507 0)
(0.51948 -0.00207507 0)
(0.51948 -0.00207506 0)
(0.51948 -0.00207505 0)
(0.519479 -0.00207503 0)
(0.519479 -0.00207501 0)
(0.519478 -0.00207497 0)
(0.519476 -0.00207492 0)
(0.519475 -0.00207485 0)
(0.519472 -0.00207475 0)
(0.519469 -0.00207463 0)
(0.519464 -0.00207449 0)
(0.519458 -0.00207434 0)
(0.51945 -0.00207433 0)
(0.519443 -0.00207462 0)
(0.519435 -0.00207527 0)
(0.519442 -0.00207437 0)
(0.51936 -0.00206116 0)
(0.519227 -0.00202115 0)
(0.518637 -0.00215157 0)
(0.86494 0.128442 0)
(0.911619 0.0160005 0)
(0.861991 0.000987727 0)
(0.871381 -6.87798e-05 0)
(0.867984 -0.000503162 0)
(0.869566 -0.000188061 0)
(0.868598 -0.000199331 0)
(0.86842 -0.000160957 0)
(0.867896 -0.000190001 0)
(0.867585 -0.000202348 0)
(0.867265 -0.000221562 0)
(0.867022 -0.000234408 0)
(0.866808 -0.000246626 0)
(0.866632 -0.000256264 0)
(0.866482 -0.000264332 0)
(0.866356 -0.000270853 0)
(0.866251 -0.000276409 0)
(0.866163 -0.000281156 0)
(0.86609 -0.000285219 0)
(0.86603 -0.000288685 0)
(0.865981 -0.000291558 0)
(0.865942 -0.000293989 0)
(0.86591 -0.000296006 0)
(0.865885 -0.000297709 0)
(0.865865 -0.00029903 0)
(0.865849 -0.000300117 0)
(0.865837 -0.000301002 0)
(0.865828 -0.000301701 0)
(0.865821 -0.000302203 0)
(0.865816 -0.000302622 0)
(0.865812 -0.00030292 0)
(0.865809 -0.000303189 0)
(0.865807 -0.000303361 0)
(0.865805 -0.000303477 0)
(0.865804 -0.000303552 0)
(0.865803 -0.000303663 0)
(0.865802 -0.000303713 0)
(0.865802 -0.000303753 0)
(0.865802 -0.000303757 0)
(0.865801 -0.000303788 0)
(0.865801 -0.000303779 0)
(0.865801 -0.000303819 0)
(0.865801 -0.000303823 0)
(0.865801 -0.000303846 0)
(0.865801 -0.000303819 0)
(0.865801 -0.000303825 0)
(0.865801 -0.000303826 0)
(0.865801 -0.000303853 0)
(0.865801 -0.000303844 0)
(0.865801 -0.000303847 0)
(0.865801 -0.000303822 0)
(0.865801 -0.000303842 0)
(0.865801 -0.000303843 0)
(0.865801 -0.000303854 0)
(0.865801 -0.000303835 0)
(0.865801 -0.000303839 0)
(0.865801 -0.000303832 0)
(0.865801 -0.000303854 0)
(0.865801 -0.000303837 0)
(0.865801 -0.000303848 0)
(0.865801 -0.000303836 0)
(0.865801 -0.000303853 0)
(0.865801 -0.000303842 0)
(0.865801 -0.000303847 0)
(0.865801 -0.000303835 0)
(0.865801 -0.00030385 0)
(0.865801 -0.000303836 0)
(0.865801 -0.000303844 0)
(0.865801 -0.000303831 0)
(0.865801 -0.000303835 0)
(0.865801 -0.000303826 0)
(0.865801 -0.000303834 0)
(0.865801 -0.000303829 0)
(0.865801 -0.000303841 0)
(0.865801 -0.000303825 0)
(0.865801 -0.000303833 0)
(0.865801 -0.00030383 0)
(0.865801 -0.000303833 0)
(0.8658 -0.000303815 0)
(0.8658 -0.000303812 0)
(0.8658 -0.000303788 0)
(0.8658 -0.000303777 0)
(0.8658 -0.000303741 0)
(0.865799 -0.000303698 0)
(0.865799 -0.000303628 0)
(0.865798 -0.000303549 0)
(0.865796 -0.000303414 0)
(0.865795 -0.000303234 0)
(0.865792 -0.000302976 0)
(0.865788 -0.000302637 0)
(0.865783 -0.000302168 0)
(0.865776 -0.000301617 0)
(0.865766 -0.000300985 0)
(0.865754 -0.000300644 0)
(0.865741 -0.000300865 0)
(0.865723 -0.000301434 0)
(0.865717 -0.000293313 0)
(0.865545 -0.000239515 0)
(0.865251 -7.33432e-05 0)
(0.863184 -0.000219094 0)
(0.960352 0.135881 0)
(1.02539 0.0244284 0)
(0.976352 0.00334598 0)
(0.987444 0.000828601 0)
(0.983126 0.000106281 0)
(0.985025 0.000612038 0)
(0.983945 0.000618156 0)
(0.983843 0.000683134 0)
(0.983309 0.000636382 0)
(0.983019 0.000613439 0)
(0.982702 0.000579652 0)
(0.982466 0.00055634 0)
(0.982254 0.000534556 0)
(0.982081 0.000517238 0)
(0.981932 0.000502517 0)
(0.981808 0.000490454 0)
(0.981702 0.000480117 0)
(0.981614 0.00047127 0)
(0.98154 0.000463702 0)
(0.98148 0.000457176 0)
(0.98143 0.000451709 0)
(0.981389 0.00044707 0)
(0.981356 0.000443235 0)
(0.98133 0.000440005 0)
(0.981309 0.000437428 0)
(0.981293 0.000435315 0)
(0.98128 0.000433619 0)
(0.98127 0.000432247 0)
(0.981263 0.000431242 0)
(0.981257 0.00043041 0)
(0.981253 0.00042982 0)
(0.98125 0.000429304 0)
(0.981247 0.000428945 0)
(0.981246 0.000428676 0)
(0.981244 0.000428523 0)
(0.981243 0.000428326 0)
(0.981243 0.000428224 0)
(0.981242 0.000428134 0)
(0.981242 0.00042812 0)
(0.981242 0.000428061 0)
(0.981241 0.000428064 0)
(0.981241 0.00042801 0)
(0.981241 0.00042801 0)
(0.981241 0.000427969 0)
(0.981241 0.000427992 0)
(0.981241 0.000427977 0)
(0.981241 0.000427992 0)
(0.981241 0.000427958 0)
(0.981241 0.000427967 0)
(0.981241 0.000427944 0)
(0.981241 0.000427977 0)
(0.981241 0.000427956 0)
(0.981241 0.000427965 0)
(0.981241 0.000427943 0)
(0.981241 0.000427964 0)
(0.981241 0.000427951 0)
(0.981241 0.000427968 0)
(0.981241 0.000427939 0)
(0.981241 0.000427959 0)
(0.981241 0.000427943 0)
(0.981241 0.000427962 0)
(0.981241 0.000427939 0)
(0.981241 0.000427952 0)
(0.981241 0.00042794 0)
(0.981241 0.000427962 0)
(0.981241 0.000427944 0)
(0.981241 0.000427964 0)
(0.981241 0.000427954 0)
(0.981241 0.000427975 0)
(0.981241 0.000427967 0)
(0.981241 0.000427984 0)
(0.981241 0.000427972 0)
(0.981241 0.000427984 0)
(0.981241 0.000427964 0)
(0.981241 0.000427981 0)
(0.981241 0.000427971 0)
(0.981241 0.00042798 0)
(0.981241 0.000427975 0)
(0.981241 0.000428003 0)
(0.98124 0.000428012 0)
(0.98124 0.000428055 0)
(0.98124 0.000428085 0)
(0.98124 0.000428152 0)
(0.981239 0.000428233 0)
(0.981239 0.000428368 0)
(0.981238 0.000428528 0)
(0.981236 0.000428782 0)
(0.981234 0.000429127 0)
(0.981232 0.000429625 0)
(0.981228 0.000430282 0)
(0.981223 0.000431188 0)
(0.981215 0.000432284 0)
(0.981205 0.000433608 0)
(0.981192 0.000434592 0)
(0.981178 0.000435245 0)
(0.981151 0.000436384 0)
(0.981131 0.000458821 0)
(0.980908 0.000569134 0)
(0.980541 0.000943267 0)
(0.977593 0.00117818 0)
(0.984998 0.123258 0)
(1.05955 0.0286552 0)
(1.01378 0.00469534 0)
(1.02595 0.000705409 0)
(1.02103 -0.000181323 0)
(1.02314 0.000447633 0)
(1.02202 0.000486655 0)
(1.02202 0.0005706 0)
(1.02153 0.00051107 0)
(1.0213 0.000477649 0)
(1.02102 0.000430977 0)
(1.02081 0.000397648 0)
(1.02063 0.000366792 0)
(1.02048 0.00034192 0)
(1.02035 0.000320459 0)
(1.02024 0.000303415 0)
(1.02014 0.000288791 0)
(1.02006 0.000276236 0)
(1.02 0.000265479 0)
(1.01994 0.000256155 0)
(1.0199 0.000248276 0)
(1.01986 0.000241566 0)
(1.01983 0.000235997 0)
(1.0198 0.000231285 0)
(1.01979 0.00022746 0)
(1.01977 0.000224345 0)
(1.01976 0.000221868 0)
(1.01975 0.000219851 0)
(1.01974 0.000218348 0)
(1.01974 0.000217116 0)
(1.01973 0.000216237 0)
(1.01973 0.000215487 0)
(1.01973 0.00021494 0)
(1.01973 0.000214517 0)
(1.01972 0.000214285 0)
(1.01972 0.000214014 0)
(1.01972 0.000213854 0)
(1.01972 0.00021371 0)
(1.01972 0.000213682 0)
(1.01972 0.000213605 0)
(1.01972 0.000213602 0)
(1.01972 0.00021353 0)
(1.01972 0.000213525 0)
(1.01972 0.000213473 0)
(1.01972 0.000213494 0)
(1.01972 0.000213472 0)
(1.01972 0.000213495 0)
(1.01972 0.000213454 0)
(1.01972 0.00021346 0)
(1.01972 0.000213424 0)
(1.01972 0.000213461 0)
(1.01972 0.000213438 0)
(1.01972 0.00021345 0)
(1.01972 0.000213422 0)
(1.01972 0.000213446 0)
(1.01972 0.000213427 0)
(1.01972 0.000213451 0)
(1.01972 0.000213418 0)
(1.01972 0.000213439 0)
(1.01972 0.000213423 0)
(1.01972 0.000213448 0)
(1.01972 0.000213421 0)
(1.01972 0.000213432 0)
(1.01972 0.000213414 0)
(1.01972 0.000213444 0)
(1.01972 0.000213425 0)
(1.01972 0.000213447 0)
(1.01972 0.000213438 0)
(1.01972 0.000213467 0)
(1.01972 0.00021346 0)
(1.01972 0.000213482 0)
(1.01972 0.000213468 0)
(1.01972 0.000213484 0)
(1.01972 0.00021346 0)
(1.01972 0.000213478 0)
(1.01972 0.000213465 0)
(1.01972 0.000213477 0)
(1.01972 0.000213472 0)
(1.01972 0.00021351 0)
(1.01972 0.000213527 0)
(1.01972 0.000213587 0)
(1.01972 0.000213637 0)
(1.01972 0.000213734 0)
(1.01972 0.000213854 0)
(1.01972 0.000214051 0)
(1.01972 0.000214291 0)
(1.01972 0.000214656 0)
(1.01971 0.000215157 0)
(1.01971 0.000215881 0)
(1.01971 0.000216844 0)
(1.0197 0.000218174 0)
(1.0197 0.000219816 0)
(1.01969 0.000221903 0)
(1.01968 0.000223763 0)
(1.01966 0.000226158 0)
(1.01963 0.000230556 0)
(1.0196 0.00027157 0)
(1.01935 0.000444193 0)
(1.01899 0.00104987 0)
(1.01589 0.00176949 0)
(0.988593 0.109926 0)
(1.068 0.0309626 0)
(1.02562 0.00570165 0)
(1.03854 0.000552291 0)
(1.03321 -0.000403007 0)
(1.03549 0.000302625 0)
(1.03436 0.000376131 0)
(1.03447 0.000472014 0)
(1.03403 0.00040412 0)
(1.03386 0.00036212 0)
(1.03362 0.000305716 0)
(1.03346 0.000264647 0)
(1.03331 0.00022701 0)
(1.03319 0.000196559 0)
(1.03308 0.000170307 0)
(1.03299 0.000149168 0)
(1.03291 0.000130971 0)
(1.03284 0.000115271 0)
(1.03279 0.000101773 0)
(1.03274 9.00061e-05 0)
(1.0327 7.99597e-05 0)
(1.03267 7.13262e-05 0)
(1.03264 6.40782e-05 0)
(1.03262 5.78548e-05 0)
(1.03261 5.26489e-05 0)
(1.03259 4.85058e-05 0)
(1.03258 4.53404e-05 0)
(1.03257 4.27535e-05 0)
(1.03257 4.0804e-05 0)
(1.03256 3.92113e-05 0)
(1.03256 3.80687e-05 0)
(1.03256 3.71108e-05 0)
(1.03255 3.63952e-05 0)
(1.03255 3.58235e-05 0)
(1.03255 3.55048e-05 0)
(1.03255 3.51703e-05 0)
(1.03255 3.49649e-05 0)
(1.03255 3.47693e-05 0)
(1.03255 3.47204e-05 0)
(1.03255 3.46294e-05 0)
(1.03255 3.46225e-05 0)
(1.03255 3.45355e-05 0)
(1.03255 3.45205e-05 0)
(1.03255 3.4457e-05 0)
(1.03255 3.44779e-05 0)
(1.03255 3.44506e-05 0)
(1.03255 3.4478e-05 0)
(1.03255 3.4429e-05 0)
(1.03255 3.44318e-05 0)
(1.03255 3.43857e-05 0)
(1.03255 3.44247e-05 0)
(1.03255 3.44007e-05 0)
(1.03255 3.44153e-05 0)
(1.03255 3.43805e-05 0)
(1.03255 3.44077e-05 0)
(1.03255 3.43871e-05 0)
(1.03255 3.44181e-05 0)
(1.03255 3.43822e-05 0)
(1.03255 3.44038e-05 0)
(1.03255 3.4387e-05 0)
(1.03255 3.4419e-05 0)
(1.03255 3.43887e-05 0)
(1.03255 3.43974e-05 0)
(1.03255 3.43711e-05 0)
(1.03255 3.44061e-05 0)
(1.03255 3.43902e-05 0)
(1.03255 3.44153e-05 0)
(1.03255 3.44041e-05 0)
(1.03255 3.44408e-05 0)
(1.03255 3.44365e-05 0)
(1.03255 3.44662e-05 0)
(1.03255 3.445e-05 0)
(1.03255 3.44695e-05 0)
(1.03255 3.44412e-05 0)
(1.03255 3.44596e-05 0)
(1.03255 3.44446e-05 0)
(1.03255 3.44581e-05 0)
(1.03255 3.44513e-05 0)
(1.03255 3.44969e-05 0)
(1.03255 3.4523e-05 0)
(1.03255 3.45974e-05 0)
(1.03255 3.46651e-05 0)
(1.03255 3.47898e-05 0)
(1.03255 3.49427e-05 0)
(1.03255 3.51937e-05 0)
(1.03254 3.55036e-05 0)
(1.03254 3.59663e-05 0)
(1.03254 3.65974e-05 0)
(1.03254 3.75138e-05 0)
(1.03254 3.87359e-05 0)
(1.03253 4.04323e-05 0)
(1.03253 4.25646e-05 0)
(1.03252 4.54073e-05 0)
(1.03251 4.83034e-05 0)
(1.03249 5.33124e-05 0)
(1.03246 6.23904e-05 0)
(1.03242 0.000123638 0)
(1.03218 0.000349324 0)
(1.03185 0.00116845 0)
(1.02902 0.00229727 0)
(0.986407 0.0982387 0)
(1.06827 0.0321882 0)
(1.02899 0.0065273 0)
(1.04247 0.000506707 0)
(1.03684 -0.000468267 0)
(1.03926 0.000281806 0)
(1.03813 0.000387359 0)
(1.03834 0.000489673 0)
(1.03796 0.000417512 0)
(1.03786 0.000369637 0)
(1.03767 0.000307268 0)
(1.03755 0.000261512 0)
(1.03743 0.000220212 0)
(1.03734 0.000187024 0)
(1.03725 0.000158485 0)
(1.03718 0.000134282 0)
(1.03712 0.000113359 0)
(1.03707 9.52449e-05 0)
(1.03702 7.96472e-05 0)
(1.03698 6.60295e-05 0)
(1.03695 5.43472e-05 0)
(1.03693 4.42769e-05 0)
(1.0369 3.58135e-05 0)
(1.03689 2.85565e-05 0)
(1.03687 2.24604e-05 0)
(1.03686 1.7575e-05 0)
(1.03685 1.38273e-05 0)
(1.03685 1.07533e-05 0)
(1.03684 8.41257e-06 0)
(1.03684 6.50012e-06 0)
(1.03683 5.11175e-06 0)
(1.03683 3.95602e-06 0)
(1.03683 3.07218e-06 0)
(1.03683 2.33796e-06 0)
(1.03683 1.90599e-06 0)
(1.03683 1.51221e-06 0)
(1.03682 1.27334e-06 0)
(1.03682 1.0355e-06 0)
(1.03682 9.61112e-07 0)
(1.03682 8.52631e-07 0)
(1.03682 8.43046e-07 0)
(1.03682 7.47287e-07 0)
(1.03682 7.26881e-07 0)
(1.03682 6.5437e-07 0)
(1.03682 6.69548e-07 0)
(1.03682 6.34336e-07 0)
(1.03682 6.67147e-07 0)
(1.03682 6.14514e-07 0)
(1.03682 6.14194e-07 0)
(1.03682 5.57432e-07 0)
(1.03682 5.94321e-07 0)
(1.03682 5.70119e-07 0)
(1.03682 5.88101e-07 0)
(1.03682 5.48972e-07 0)
(1.03682 5.78061e-07 0)
(1.03682 5.56015e-07 0)
(1.03682 5.93068e-07 0)
(1.03682 5.57937e-07 0)
(1.03682 5.81156e-07 0)
(1.03682 5.61658e-07 0)
(1.03682 5.9808e-07 0)
(1.03682 5.66662e-07 0)
(1.03682 5.73349e-07 0)
(1.03682 5.38291e-07 0)
(1.03682 5.75814e-07 0)
(1.03682 5.62187e-07 0)
(1.03682 5.92104e-07 0)
(1.03682 5.81176e-07 0)
(1.03682 6.23519e-07 0)
(1.03682 6.21508e-07 0)
(1.03682 6.57421e-07 0)
(1.03682 6.42087e-07 0)
(1.03682 6.64619e-07 0)
(1.03682 6.32277e-07 0)
(1.03682 6.49162e-07 0)
(1.03682 6.31975e-07 0)
(1.03682 6.46866e-07 0)
(1.03682 6.38416e-07 0)
(1.03682 6.88592e-07 0)
(1.03682 7.22576e-07 0)
(1.03682 8.09923e-07 0)
(1.03682 8.93126e-07 0)
(1.03682 1.04047e-06 0)
(1.03682 1.22022e-06 0)
(1.03682 1.51468e-06 0)
(1.03682 1.88802e-06 0)
(1.03682 2.46009e-06 0)
(1.03682 3.22703e-06 0)
(1.03682 4.32214e-06 0)
(1.03681 5.77581e-06 0)
(1.03681 7.79373e-06 0)
(1.03681 1.03669e-05 0)
(1.0368 1.39445e-05 0)
(1.03679 1.79551e-05 0)
(1.03677 2.56481e-05 0)
(1.03674 3.9419e-05 0)
(1.0367 0.000119394 0)
(1.03647 0.000384007 0)
(1.03621 0.00139883 0)
(1.03382 0.0028471 0)
(0.983101 0.0876271 0)
(1.06614 0.0325 0)
(1.02961 0.00711899 0)
(1.04351 0.000482748 0)
(1.03766 -0.000481907 0)
(1.04019 0.000286665 0)
(1.03907 0.000422709 0)
(1.03937 0.000529306 0)
(1.03905 0.000455088 0)
(1.039 0.000402774 0)
(1.03886 0.000335896 0)
(1.03878 0.000286274 0)
(1.0387 0.000241702 0)
(1.03863 0.000205752 0)
(1.03857 0.00017487 0)
(1.03852 0.000148509 0)
(1.03847 0.000125693 0)
(1.03843 0.0001059 0)
(1.0384 8.88481e-05 0)
(1.03837 7.39736e-05 0)
(1.03835 6.12069e-05 0)
(1.03833 5.02202e-05 0)
(1.03831 4.10395e-05 0)
(1.0383 3.32598e-05 0)
(1.03829 2.6799e-05 0)
(1.03828 2.14843e-05 0)
(1.03827 1.72727e-05 0)
(1.03827 1.38067e-05 0)
(1.03826 1.11414e-05 0)
(1.03826 8.95907e-06 0)
(1.03826 7.35257e-06 0)
(1.03825 6.01956e-06 0)
(1.03825 4.98056e-06 0)
(1.03825 4.09159e-06 0)
(1.03825 3.56457e-06 0)
(1.03825 3.12309e-06 0)
(1.03825 2.8572e-06 0)
(1.03825 2.58729e-06 0)
(1.03825 2.48922e-06 0)
(1.03825 2.36563e-06 0)
(1.03825 2.35356e-06 0)
(1.03825 2.25203e-06 0)
(1.03825 2.22538e-06 0)
(1.03825 2.14736e-06 0)
(1.03825 2.1573e-06 0)
(1.03825 2.11391e-06 0)
(1.03825 2.14883e-06 0)
(1.03825 2.09435e-06 0)
(1.03825 2.09055e-06 0)
(1.03825 2.02565e-06 0)
(1.03825 2.05892e-06 0)
(1.03825 2.03557e-06 0)
(1.03825 2.05522e-06 0)
(1.03825 2.01163e-06 0)
(1.03825 2.04168e-06 0)
(1.03825 2.02168e-06 0)
(1.03825 2.0645e-06 0)
(1.03825 2.03175e-06 0)
(1.03825 2.05587e-06 0)
(1.03825 2.03346e-06 0)
(1.03825 2.07219e-06 0)
(1.03825 2.04179e-06 0)
(1.03825 2.0471e-06 0)
(1.03825 2.00394e-06 0)
(1.03825 2.04112e-06 0)
(1.03825 2.03033e-06 0)
(1.03825 2.0654e-06 0)
(1.03825 2.05603e-06 0)
(1.03825 2.1022e-06 0)
(1.03825 2.10289e-06 0)
(1.03825 2.14402e-06 0)
(1.03825 2.13102e-06 0)
(1.03825 2.15616e-06 0)
(1.03825 2.12045e-06 0)
(1.03825 2.13421e-06 0)
(1.03825 2.11527e-06 0)
(1.03825 2.1311e-06 0)
(1.03825 2.12123e-06 0)
(1.03825 2.17302e-06 0)
(1.03825 2.21327e-06 0)
(1.03825 2.31128e-06 0)
(1.03825 2.40764e-06 0)
(1.03825 2.57267e-06 0)
(1.03825 2.77263e-06 0)
(1.03825 3.09899e-06 0)
(1.03825 3.52028e-06 0)
(1.03825 4.16958e-06 0)
(1.03824 5.06639e-06 0)
(1.03824 6.31992e-06 0)
(1.03824 7.97083e-06 0)
(1.03824 1.02616e-05 0)
(1.03824 1.32207e-05 0)
(1.03823 1.74863e-05 0)
(1.03822 2.26145e-05 0)
(1.03821 3.27877e-05 0)
(1.03818 5.0769e-05 0)
(1.03814 0.000147142 0)
(1.03794 0.000446253 0)
(1.03774 0.001626 0)
(1.03587 0.00331322 0)
(0.980007 0.0779168 0)
(1.06352 0.0320456 0)
(1.02938 0.00746327 0)
(1.04358 0.000446735 0)
(1.03758 -0.000486879 0)
(1.0402 0.000281667 0)
(1.03908 0.00044479 0)
(1.03947 0.000553401 0)
(1.0392 0.000479301 0)
(1.03921 0.000424228 0)
(1.03911 0.000354728 0)
(1.03907 0.000302607 0)
(1.03902 0.000255864 0)
(1.03898 0.000217935 0)
(1.03894 0.000185353 0)
(1.03891 0.000157615 0)
(1.03888 0.000133575 0)
(1.03885 0.000112672 0)
(1.03883 9.46226e-05 0)
(1.03881 7.88604e-05 0)
(1.0388 6.52945e-05 0)
(1.03878 5.35902e-05 0)
(1.03877 4.3791e-05 0)
(1.03876 3.55062e-05 0)
(1.03875 2.86157e-05 0)
(1.03875 2.29029e-05 0)
(1.03874 1.83531e-05 0)
(1.03874 1.46122e-05 0)
(1.03873 1.17173e-05 0)
(1.03873 9.34744e-06 0)
(1.03873 7.59032e-06 0)
(1.03873 6.15086e-06 0)
(1.03873 5.03434e-06 0)
(1.03873 4.06867e-06 0)
(1.03873 3.47988e-06 0)
(1.03872 2.98407e-06 0)
(1.03872 2.6889e-06 0)
(1.03872 2.39945e-06 0)
(1.03872 2.28062e-06 0)
(1.03872 2.14264e-06 0)
(1.03872 2.12545e-06 0)
(1.03872 2.02116e-06 0)
(1.03872 1.98914e-06 0)
(1.03872 1.91015e-06 0)
(1.03872 1.91539e-06 0)
(1.03872 1.86326e-06 0)
(1.03872 1.89592e-06 0)
(1.03872 1.84215e-06 0)
(1.03872 1.83621e-06 0)
(1.03872 1.76585e-06 0)
(1.03872 1.79225e-06 0)
(1.03872 1.77003e-06 0)
(1.03872 1.79115e-06 0)
(1.03872 1.74502e-06 0)
(1.03872 1.77436e-06 0)
(1.03872 1.75834e-06 0)
(1.03872 1.80603e-06 0)
(1.03872 1.77737e-06 0)
(1.03872 1.80174e-06 0)
(1.03872 1.77652e-06 0)
(1.03872 1.8146e-06 0)
(1.03872 1.78674e-06 0)
(1.03872 1.79159e-06 0)
(1.03872 1.74212e-06 0)
(1.03872 1.77618e-06 0)
(1.03872 1.76866e-06 0)
(1.03872 1.80877e-06 0)
(1.03872 1.80307e-06 0)
(1.03872 1.85134e-06 0)
(1.03872 1.85457e-06 0)
(1.03872 1.89934e-06 0)
(1.03872 1.88992e-06 0)
(1.03872 1.91731e-06 0)
(1.03872 1.87943e-06 0)
(1.03872 1.88835e-06 0)
(1.03872 1.86799e-06 0)
(1.03872 1.88426e-06 0)
(1.03872 1.87365e-06 0)
(1.03872 1.92449e-06 0)
(1.03872 1.96904e-06 0)
(1.03872 2.07469e-06 0)
(1.03872 2.18304e-06 0)
(1.03872 2.36248e-06 0)
(1.03872 2.57728e-06 0)
(1.03872 2.92525e-06 0)
(1.03872 3.3993e-06 0)
(1.03872 4.08344e-06 0)
(1.03872 5.02899e-06 0)
(1.03872 6.35688e-06 0)
(1.03872 8.12083e-06 0)
(1.03872 1.0595e-05 0)
(1.03871 1.38496e-05 0)
(1.03871 1.87061e-05 0)
(1.0387 2.48879e-05 0)
(1.03869 3.76725e-05 0)
(1.03866 5.99404e-05 0)
(1.03863 0.000170713 0)
(1.03847 0.000496152 0)
(1.03834 0.00179879 0)
(1.03701 0.00365085 0)
(0.977413 0.0690728 0)
(1.06099 0.0309863 0)
(1.02893 0.00758529 0)
(1.04336 0.000401959 0)
(1.03723 -0.000486803 0)
(1.03991 0.000267263 0)
(1.0388 0.000452494 0)
(1.03927 0.000560877 0)
(1.03904 0.000488825 0)
(1.03911 0.000432702 0)
(1.03905 0.000362568 0)
(1.03905 0.000309521 0)
(1.03902 0.000262005 0)
(1.03901 0.00022324 0)
(1.03899 0.000189925 0)
(1.03898 0.000161579 0)
(1.03897 0.000136971 0)
(1.03895 0.000115527 0)
(1.03894 9.6963e-05 0)
(1.03893 8.07233e-05 0)
(1.03892 6.67069e-05 0)
(1.03892 5.45744e-05 0)
(1.03891 4.43754e-05 0)
(1.0389 3.57504e-05 0)
(1.0389 2.85536e-05 0)
(1.0389 2.25727e-05 0)
(1.03889 1.78121e-05 0)
(1.03889 1.39092e-05 0)
(1.03889 1.08782e-05 0)
(1.03889 8.4009e-06 0)
(1.03889 6.55616e-06 0)
(1.03888 5.07288e-06 0)
(1.03888 3.94395e-06 0)
(1.03888 2.96883e-06 0)
(1.03888 2.33965e-06 0)
(1.03888 1.81082e-06 0)
(1.03888 1.49919e-06 0)
(1.03888 1.20076e-06 0)
(1.03888 1.06358e-06 0)
(1.03888 9.10185e-07 0)
(1.03888 8.81038e-07 0)
(1.03888 7.74089e-07 0)
(1.03888 7.38121e-07 0)
(1.03888 6.61889e-07 0)
(1.03888 6.64051e-07 0)
(1.03888 6.03603e-07 0)
(1.03888 6.29126e-07 0)
(1.03888 5.77374e-07 0)
(1.03888 5.71485e-07 0)
(1.03888 4.98771e-07 0)
(1.03888 5.15267e-07 0)
(1.03888 4.93416e-07 0)
(1.03888 5.16528e-07 0)
(1.03888 4.71061e-07 0)
(1.03888 4.98058e-07 0)
(1.03888 4.86024e-07 0)
(1.03888 5.37163e-07 0)
(1.03888 5.14088e-07 0)
(1.03888 5.38485e-07 0)
(1.03888 5.11078e-07 0)
(1.03888 5.45405e-07 0)
(1.03888 5.20428e-07 0)
(1.03888 5.25893e-07 0)
(1.03888 4.73197e-07 0)
(1.03888 5.02169e-07 0)
(1.03888 4.97689e-07 0)
(1.03888 5.42111e-07 0)
(1.03888 5.42427e-07 0)
(1.03888 5.92157e-07 0)
(1.03888 5.97592e-07 0)
(1.03888 6.43993e-07 0)
(1.03888 6.38622e-07 0)
(1.03888 6.68114e-07 0)
(1.03888 6.29709e-07 0)
(1.03888 6.32375e-07 0)
(1.03888 6.10287e-07 0)
(1.03888 6.26301e-07 0)
(1.03888 6.15801e-07 0)
(1.03888 6.64172e-07 0)
(1.03888 7.10845e-07 0)
(1.03888 8.20837e-07 0)
(1.03888 9.45141e-07 0)
(1.03888 1.13977e-06 0)
(1.03888 1.36807e-06 0)
(1.03888 1.72874e-06 0)
(1.03888 2.22243e-06 0)
(1.03888 2.91487e-06 0)
(1.03888 3.84402e-06 0)
(1.03888 5.17555e-06 0)
(1.03888 6.97776e-06 0)
(1.03888 9.55049e-06 0)
(1.03888 1.30071e-05 0)
(1.03887 1.83336e-05 0)
(1.03887 2.54337e-05 0)
(1.03886 4.05914e-05 0)
(1.03884 6.66361e-05 0)
(1.03881 0.000188609 0)
(1.03869 0.000530432 0)
(1.03863 0.00191178 0)
(1.03784 0.00386 0)
(0.975311 0.0609985 0)
(1.05872 0.0294492 0)
(1.02846 0.00751387 0)
(1.04305 0.000354897 0)
(1.03683 -0.000479973 0)
(1.03955 0.000247371 0)
(1.03845 0.000448756 0)
(1.03898 0.000554938 0)
(1.03881 0.000486447 0)
(1.03892 0.000430788 0)
(1.0389 0.000361761 0)
(1.03893 0.000309197 0)
(1.03893 0.00026216 0)
(1.03894 0.000223589 0)
(1.03894 0.000190417 0)
(1.03895 0.000162181 0)
(1.03895 0.000137629 0)
(1.03895 0.000116192 0)
(1.03895 9.75911e-05 0)
(1.03895 8.12894e-05 0)
(1.03895 6.71887e-05 0)
(1.03895 5.49514e-05 0)
(1.03894 4.4624e-05 0)
(1.03894 3.5888e-05 0)
(1.03894 2.85864e-05 0)
(1.03894 2.25017e-05 0)
(1.03894 1.7649e-05 0)
(1.03894 1.36787e-05 0)
(1.03894 1.05865e-05 0)
(1.03894 8.05842e-06 0)
(1.03894 6.1593e-06 0)
(1.03894 4.65306e-06 0)
(1.03894 3.52231e-06 0)
(1.03894 2.5462e-06 0)
(1.03894 1.89811e-06 0)
(1.03893 1.37073e-06 0)
(1.03893 1.06097e-06 0)
(1.03893 7.67438e-07 0)
(1.03893 6.23815e-07 0)
(1.03893 4.63195e-07 0)
(1.03893 4.26654e-07 0)
(1.03893 3.2237e-07 0)
(1.03893 2.83703e-07 0)
(1.03893 2.1183e-07 0)
(1.03893 2.12836e-07 0)
(1.03893 1.45752e-07 0)
(1.03893 1.59373e-07 0)
(1.03893 1.08918e-07 0)
(1.03893 1.05314e-07 0)
(1.03893 3.38398e-08 0)
(1.03893 3.95369e-08 0)
(1.03893 1.56463e-08 0)
(1.03893 4.19054e-08 0)
(1.03893 2.79279e-10 0)
(1.03893 2.44305e-08 0)
(1.03893 1.40316e-08 0)
(1.03893 6.68966e-08 0)
(1.03893 5.04371e-08 0)
(1.03893 7.53401e-08 0)
(1.03893 4.68741e-08 0)
(1.03893 7.46309e-08 0)
(1.03893 5.16539e-08 0)
(1.03893 5.87298e-08 0)
(1.03893 6.31243e-09 0)
(1.03893 2.97664e-08 0)
(1.03893 2.77127e-08 0)
(1.03893 7.59304e-08 0)
(1.03893 8.43391e-08 0)
(1.03893 1.36157e-07 0)
(1.03893 1.43759e-07 0)
(1.03893 1.89925e-07 0)
(1.03893 1.88079e-07 0)
(1.03893 2.19539e-07 0)
(1.03893 1.82262e-07 0)
(1.03893 1.77957e-07 0)
(1.03893 1.53204e-07 0)
(1.03893 1.6793e-07 0)
(1.03893 1.58074e-07 0)
(1.03893 2.03444e-07 0)
(1.03893 2.50518e-07 0)
(1.03893 3.61175e-07 0)
(1.03893 4.90155e-07 0)
(1.03893 6.89174e-07 0)
(1.03893 9.21073e-07 0)
(1.03893 1.28029e-06 0)
(1.03893 1.74949e-06 0)
(1.03893 2.42424e-06 0)
(1.03893 3.33971e-06 0)
(1.03893 4.66407e-06 0)
(1.03893 6.47604e-06 0)
(1.03893 9.09591e-06 0)
(1.03893 1.26792e-05 0)
(1.03893 1.835e-05 0)
(1.03893 2.6182e-05 0)
(1.03892 4.32431e-05 0)
(1.03891 7.21919e-05 0)
(1.03889 0.000201532 0)
(1.03882 0.000550071 0)
(1.03882 0.00196725 0)
(1.03856 0.00394889 0)
(0.973622 0.053573 0)
(1.05673 0.0275282 0)
(1.02803 0.00727298 0)
(1.04273 0.000308641 0)
(1.03644 -0.000466005 0)
(1.0392 0.000223918 0)
(1.0381 0.000434848 0)
(1.03869 0.000537058 0)
(1.03855 0.000473273 0)
(1.03871 0.000419389 0)
(1.03872 0.000352948 0)
(1.03878 0.000302081 0)
(1.03881 0.000256597 0)
(1.03884 0.000219106 0)
(1.03886 0.000186829 0)
(1.03888 0.000159352 0)
(1.0389 0.000135431 0)
(1.03891 0.000114506 0)
(1.03892 9.63091e-05 0)
(1.03893 8.03326e-05 0)
(1.03894 6.64891e-05 0)
(1.03894 5.4451e-05 0)
(1.03894 4.42564e-05 0)
(1.03895 3.56274e-05 0)
(1.03895 2.84113e-05 0)
(1.03895 2.23808e-05 0)
(1.03895 1.7554e-05 0)
(1.03895 1.36076e-05 0)
(1.03895 1.05296e-05 0)
(1.03895 8.01008e-06 0)
(1.03895 6.09422e-06 0)
(1.03895 4.5851e-06 0)
(1.03895 3.46444e-06 0)
(1.03895 2.49613e-06 0)
(1.03895 1.8327e-06 0)
(1.03895 1.29855e-06 0)
(1.03895 9.90121e-07 0)
(1.03895 7.1232e-07 0)
(1.03895 5.75265e-07 0)
(1.03895 4.17278e-07 0)
(1.03895 3.80469e-07 0)
(1.03895 2.83729e-07 0)
(1.03895 2.43959e-07 0)
(1.03895 1.768e-07 0)
(1.03895 1.79792e-07 0)
(1.03895 1.09163e-07 0)
(1.03895 1.10206e-07 0)
(1.03895 5.85441e-08 0)
(1.03895 5.86124e-08 0)
(1.03895 -7.8676e-09 0)
(1.03895 -1.37665e-08 0)
(1.03895 -4.18145e-08 0)
(1.03895 -1.24893e-08 0)
(1.03895 -4.60846e-08 0)
(1.03895 -2.42911e-08 0)
(1.03895 -3.59369e-08 0)
(1.03895 1.66447e-08 0)
(1.03895 7.51223e-09 0)
(1.03895 3.41393e-08 0)
(1.03895 4.96095e-09 0)
(1.03895 2.48968e-08 0)
(1.03895 2.01625e-09 0)
(1.03895 1.10679e-08 0)
(1.03895 -3.79098e-08 0)
(1.03895 -1.85934e-08 0)
(1.03895 -1.84257e-08 0)
(1.03895 3.12689e-08 0)
(1.03895 4.68501e-08 0)
(1.03895 1.0135e-07 0)
(1.03895 1.10824e-07 0)
(1.03895 1.55189e-07 0)
(1.03895 1.55271e-07 0)
(1.03895 1.88479e-07 0)
(1.03895 1.53975e-07 0)
(1.03895 1.43504e-07 0)
(1.03895 1.15248e-07 0)
(1.03895 1.28188e-07 0)
(1.03895 1.18792e-07 0)
(1.03895 1.60654e-07 0)
(1.03895 2.05835e-07 0)
(1.03895 3.13058e-07 0)
(1.03895 4.34547e-07 0)
(1.03895 6.26325e-07 0)
(1.03895 8.51249e-07 0)
(1.03895 1.19778e-06 0)
(1.03895 1.65193e-06 0)
(1.03895 2.31186e-06 0)
(1.03895 3.21469e-06 0)
(1.03895 4.5203e-06 0)
(1.03895 6.31337e-06 0)
(1.03895 8.9275e-06 0)
(1.03895 1.25555e-05 0)
(1.03895 1.84235e-05 0)
(1.03895 2.67517e-05 0)
(1.03895 4.51299e-05 0)
(1.03895 7.59572e-05 0)
(1.03893 0.00020862 0)
(1.03892 0.000554762 0)
(1.03898 0.00196706 0)
(1.03921 0.00392555 0)
(0.972268 0.046689 0)
(1.055 0.0252962 0)
(1.02766 0.00688347 0)
(1.04244 0.000264632 0)
(1.03609 -0.000444772 0)
(1.03886 0.000198258 0)
(1.03777 0.000411739 0)
(1.03841 0.000508328 0)
(1.03831 0.000450095 0)
(1.03851 0.000399126 0)
(1.03855 0.000336542 0)
(1.03864 0.000288429 0)
(1.03869 0.000245437 0)
(1.03874 0.00020981 0)
(1.03878 0.000179096 0)
(1.03881 0.000152958 0)
(1.03884 0.000130189 0)
(1.03886 0.000110236 0)
(1.03888 9.28458e-05 0)
(1.0389 7.75491e-05 0)
(1.03891 6.42753e-05 0)
(1.03892 5.27145e-05 0)
(1.03893 4.28964e-05 0)
(1.03894 3.45759e-05 0)
(1.03894 2.76174e-05 0)
(1.03895 2.17885e-05 0)
(1.03895 1.71054e-05 0)
(1.03895 1.32741e-05 0)
(1.03895 1.02883e-05 0)
(1.03895 7.84367e-06 0)
(1.03896 5.96042e-06 0)
(1.03896 4.47816e-06 0)
(1.03896 3.39189e-06 0)
(1.03896 2.45636e-06 0)
(1.03896 1.79701e-06 0)
(1.03896 1.26129e-06 0)
(1.03896 9.55429e-07 0)
(1.03896 6.94943e-07 0)
(1.03896 5.68354e-07 0)
(1.03896 4.1507e-07 0)
(1.03896 3.76375e-07 0)
(1.03896 2.85858e-07 0)
(1.03896 2.46485e-07 0)
(1.03896 1.8335e-07 0)
(1.03896 1.90863e-07 0)
(1.03896 1.20596e-07 0)
(1.03896 1.10928e-07 0)
(1.03896 5.47194e-08 0)
(1.03896 5.8648e-08 0)
(1.03896 2.2104e-10 0)
(1.03896 -1.59803e-08 0)
(1.03896 -5.01556e-08 0)
(1.03896 -1.89513e-08 0)
(1.03896 -4.12874e-08 0)
(1.03896 -2.006e-08 0)
(1.03896 -3.47552e-08 0)
(1.03896 1.51579e-08 0)
(1.03896 1.25516e-08 0)
(1.03896 4.22356e-08 0)
(1.03896 1.29792e-08 0)
(1.03896 2.52918e-08 0)
(1.03896 2.96837e-10 0)
(1.03896 1.15815e-08 0)
(1.03896 -3.17759e-08 0)
(1.03896 -1.42862e-08 0)
(1.03896 -1.21536e-08 0)
(1.03896 3.6609e-08 0)
(1.03896 5.69838e-08 0)
(1.03896 1.14549e-07 0)
(1.03896 1.25963e-07 0)
(1.03896 1.67619e-07 0)
(1.03896 1.67411e-07 0)
(1.03896 2.01683e-07 0)
(1.03896 1.71282e-07 0)
(1.03896 1.56425e-07 0)
(1.03896 1.24081e-07 0)
(1.03896 1.34723e-07 0)
(1.03896 1.25211e-07 0)
(1.03896 1.63105e-07 0)
(1.03896 2.04303e-07 0)
(1.03896 3.05006e-07 0)
(1.03896 4.21282e-07 0)
(1.03896 6.05806e-07 0)
(1.03896 8.22549e-07 0)
(1.03896 1.15273e-06 0)
(1.03896 1.58831e-06 0)
(1.03896 2.22293e-06 0)
(1.03896 3.09418e-06 0)
(1.03896 4.35383e-06 0)
(1.03896 6.08794e-06 0)
(1.03896 8.634e-06 0)
(1.03896 1.22135e-05 0)
(1.03896 1.81106e-05 0)
(1.03897 2.66611e-05 0)
(1.03897 4.5694e-05 0)
(1.03897 7.72953e-05 0)
(1.03896 0.000209203 0)
(1.03901 0.000544343 0)
(1.03912 0.00191381 0)
(1.03982 0.00379858 0)
(0.971183 0.0402571 0)
(1.05353 0.0228122 0)
(1.02733 0.00636446 0)
(1.04218 0.000223651 0)
(1.03579 -0.000416037 0)
(1.03856 0.000171665 0)
(1.03748 0.000380597 0)
(1.03816 0.000470009 0)