/*--------------------------------*- C++ -*----------------------------------*\
| =========                 |                                                 |
| \\      /  F ield         | OpenFOAM: The Open Source CFD Toolbox           |
|  \\    /   O peration     | Version:  2.3.0                                 |
|   \\  /    A nd           | Web:      www.OpenFOAM.org                      |
|    \\/     M anipulation  |                                                 |
\*---------------------------------------------------------------------------*/
FoamFile
{
    version     2.0;
    format      ascii;
    class       volScalarField;
    location    "2";
    object      p;
}
// * * * * * * * * * * * * * * * * * * * * * * * * * * * * * * * * * * * * * //

dimensions      [0 2 -2 0 0 0 0];

internalField   nonuniform List<scalar> 
4000
(
427.113
413.876
409.82
404.544
399.859
395.069
390.464
385.917
381.458
377.054
372.7
368.384
364.099
359.839
355.599
351.376
347.165
342.966
338.775
334.591
330.412
326.238
322.068
317.9
313.735
309.572
305.41
301.249
297.09
292.931
288.773
284.615
280.457
276.3
272.144
267.987
263.831
259.674
255.518
251.362
247.206
243.05
238.894
234.738
230.582
226.426
222.27
218.114
213.958
209.803
205.647
201.491
197.335
193.179
189.023
184.867
180.711
176.556
172.4
168.244
164.088
159.932
155.776
151.62
147.465
143.309
139.153
134.997
130.841
126.685
122.53
118.374
114.218
110.062
105.906
101.75
97.5945
93.4387
89.2829
85.127
80.9712
76.8154
72.6597
68.504
64.3483
60.1927
56.0372
51.8819
47.7268
43.5721
39.418
35.2648
31.1128
26.9626
22.815
18.6707
14.5308
10.3927
6.27112
2.1486
424.666
413.786
409.67
404.357
399.669
394.877
390.272
385.724
381.266
376.861
372.506
368.19
363.904
359.644
355.404
351.181
346.971
342.771
338.58
334.396
330.217
326.043
321.873
317.705
313.54
309.377
305.215
301.054
296.894
292.736
288.577
284.42
280.262
276.105
271.948
267.792
263.635
259.479
255.323
251.167
247.011
242.855
238.699
234.543
230.387
226.231
222.075
217.919
213.763
209.607
205.451
201.295
197.14
192.984
188.828
184.672
180.516
176.36
172.204
168.049
163.893
159.737
155.581
151.425
147.269
143.114
138.958
134.802
130.646
126.49
122.334
118.178
114.023
109.867
105.711
101.555
97.3992
93.2434
89.0876
84.9317
80.7759
76.6202
72.4644
68.3087
64.153
59.9974
55.8419
51.6866
47.5315
43.3768
39.2227
35.0695
30.9175
26.7673
22.6197
18.4754
14.3356
10.198
6.07775
1.96698
423.384
413.783
409.623
404.277
399.59
394.794
390.189
385.64
381.181
376.776
372.421
368.104
363.819
359.558
355.318
351.094
346.884
342.684
338.493
334.309
330.13
325.956
321.786
317.618
313.453
309.29
305.128
300.967
296.808
292.649
288.49
284.333
280.175
276.018
271.861
267.705
263.548
259.392
255.236
251.08
246.924
242.768
238.612
234.456
230.3
226.144
221.988
217.832
213.676
209.52
205.364
201.209
197.053
192.897
188.741
184.585
180.429
176.273
172.118
167.962
163.806
159.65
155.494
151.338
147.182
143.027
138.871
134.715
130.559
126.403
122.247
118.091
113.936
109.78
105.624
101.468
97.3123
93.1565
89.0006
84.8448
80.689
76.5332
72.3775
68.2217
64.066
59.9104
55.755
51.5996
47.4446
43.2899
39.1358
34.9825
30.8305
26.6803
22.5327
18.3884
14.2487
10.1112
5.99161
1.88586
422.865
413.875
409.66
404.295
399.607
394.806
390.202
385.652
381.192
376.786
372.431
368.114
363.828
359.567
355.327
351.103
346.893
342.693
338.502
334.318
330.139
325.965
321.794
317.627
313.461
309.298
305.136
300.976
296.816
292.657
288.499
284.341
280.184
276.027
271.87
267.713
263.557
259.401
255.244
251.088
246.932
242.776
238.62
234.464
230.308
226.152
221.996
217.84
213.685
209.529
205.373
201.217
197.061
192.905
188.749
184.594
180.438
176.282
172.126
167.97
163.814
159.658
155.503
151.347
147.191
143.035
138.879
134.723
130.567
126.412
122.256
118.1
113.944
109.788
105.632
101.477
97.3207
93.1649
89.009
84.8532
80.6974
76.5416
72.3859
68.2301
64.0745
59.9189
55.7634
51.608
47.453
43.2983
39.1442
34.9909
30.8388
26.6886
22.541
18.3967
14.2572
10.12
5.99922
1.89066
422.526
413.985
409.724
404.341
399.651
394.846
390.241
385.69
381.231
376.824
372.469
368.151
363.865
359.605
355.364
351.14
346.93
342.73
338.539
334.354
330.176
326.001
321.831
317.663
313.498
309.335
305.173
301.012
296.852
292.694
288.535
284.377
280.22
276.063
271.906
267.75
263.593
259.437
255.281
251.125
246.968
242.812
238.656
234.501
230.345
226.189
222.033
217.877
213.721
209.565
205.409
201.253
197.098
192.942
188.786
184.63
180.474
176.318
172.162
168.006
163.851
159.695
155.539
151.383
147.227
143.071
138.916
134.76
130.604
126.448
122.292
118.136
113.98
109.825
105.669
101.513
97.3571
93.2013
89.0454
84.8896
80.7338
76.578
72.4223
68.2665
64.1109
59.9553
55.7998
51.6444
47.4894
43.3347
39.1805
35.0273
30.8752
26.7249
22.5773
18.4331
14.2937
10.1563
6.03459
1.92169
422.221
414.081
409.791
404.39
399.696
394.887
390.283
385.731
381.271
376.864
372.508
368.191
363.904
359.644
355.403
351.179
346.968
342.768
338.577
334.393
330.214
326.04
321.869
317.702
313.536
309.373
305.211
301.05
296.891
292.732
288.574
284.416
280.258
276.101
271.945
267.788
263.632
259.475
255.319
251.163
247.007
242.851
238.695
234.539
230.383
226.227
222.071
217.915
213.759
209.603
205.448
201.292
197.136
192.98
188.824
184.668
180.512
176.357
172.201
168.045
163.889
159.733
155.577
151.421
147.266
143.11
138.954
134.798
130.642
126.486
122.331
118.175
114.019
109.863
105.707
101.551
97.3955
93.2396
89.0838
84.928
80.7722
76.6164
72.4606
68.3049
64.1492
59.9936
55.8381
51.6828
47.5277
43.373
39.2189
35.0656
30.9135
26.7633
22.6156
18.4714
14.332
10.1951
6.0723
1.95496
421.95
414.158
409.854
404.438
399.738
394.925
390.322
385.769
381.309
376.902
372.546
368.228
363.942
359.681
355.44
351.216
347.005
342.805
338.614
334.43
330.251
326.077
321.906
317.738
313.573
309.41
305.248
301.087
296.927
292.769
288.61
284.453
280.295
276.138
271.981
267.825
263.668
259.512
255.356
251.2
247.044
242.887
238.732
234.576
230.42
226.264
222.108
217.952
213.796
209.64
205.484
201.328
197.173
193.017
188.861
184.705
180.549
176.393
172.237
168.082
163.926
159.77
155.614
151.458
147.302
143.146
138.991
134.835
130.679
126.523
122.367
118.211
114.055
109.9
105.744
101.588
97.4321
93.2763
89.1205
84.9647
80.8089
76.6531
72.4973
68.3416
64.1859
60.0303
55.8748
51.7195
47.5644
43.4097
39.2555
35.1022
30.9501
26.7999
22.6522
18.5081
14.3687
10.2324
6.10814
1.98637
421.714
414.221
409.913
404.484
399.778
394.961
390.358
385.805
381.345
376.938
372.582
368.264
363.977
359.716
355.475
351.251
347.04
342.84
338.649
334.464
330.286
326.111
321.941
317.773
313.608
309.444
305.282
301.122
296.962
292.803
288.645
284.487
280.33
276.173
272.016
267.859
263.703
259.547
255.39
251.234
247.078
242.922
238.766
234.61
230.454
226.298
222.142
217.987
213.831
209.675
205.519
201.363
197.207
193.051
188.895
184.74
180.584
176.428
172.272
168.116
163.96
159.804
155.649
151.493
147.337
143.181
139.025
134.869
130.714
126.558
122.402
118.246
114.09
109.934
105.778
101.623
97.4668
93.311
89.1552
84.9993
80.8435
76.6877
72.532
68.3762
64.2206
60.065
55.9095
51.7541
47.599
43.4443
39.2902
35.1369
30.9848
26.8345
22.6868
18.5427
14.4035
10.2677
6.14191
2.01578
421.509
414.273
409.968
404.527
399.815
394.995
390.392
385.838
381.379
376.971
372.615
368.296
364.01
359.749
355.508
351.284
347.073
342.873
338.681
334.497
330.318
326.144
321.973
317.805
313.64
309.477
305.315
301.154
296.994
292.836
288.677
284.519
280.362
276.205
272.048
267.892
263.735
259.579
255.423
251.267
247.11
242.954
238.798
234.643
230.487
226.331
222.175
218.019
213.863
209.707
205.551
201.395
197.24
193.084
188.928
184.772
180.616
176.46
172.304
168.148
163.993
159.837
155.681
151.525
147.369
143.213
139.058
134.902
130.746
126.59
122.434
118.278
114.122
109.967
105.811
101.655
97.4991
93.3433
89.1874
85.0316
80.8758
76.72
72.5643
68.4085
64.2529
60.0972
55.9417
51.7864
47.6313
43.4766
39.3225
35.1691
31.017
26.8668
22.7191
18.575
14.4358
10.3007
6.17337
2.04302
421.329
414.315
410.018
404.568
399.848
395.025
390.423
385.869
381.409
377.001
372.645
368.327
364.04
359.779
355.538
351.314
347.103
342.902
338.711
334.527
330.348
326.173
322.003
317.835
313.67
309.506
305.344
301.184
297.024
292.865
288.707
284.549
280.392
276.235
272.078
267.921
263.765
259.609
255.452
251.296
247.14
242.984
238.828
234.672
230.516
226.36
222.204
218.049
213.893
209.737
205.581
201.425
197.269
193.113
188.957
184.802
180.646
176.49
172.334
168.178
164.022
159.866
155.711
151.555
147.399
143.243
139.087
134.931
130.776
126.62
122.464
118.308
114.152
109.996
105.84
101.685
97.5288
93.3729
89.2171
85.0613
80.9055
76.7497
72.5939
68.4382
64.2825
60.1269
55.9714
51.8161
47.661
43.5063
39.3521
35.1988
31.0467
26.8964
22.7487
18.6047
14.4656
10.3312
6.2023
2.06796
421.172
414.348
410.063
404.605
399.879
395.053
390.45
385.896
381.437
377.029
372.673
368.354
364.067
359.806
355.565
351.341
347.13
342.93
338.738
334.554
330.375
326.2
322.03
317.862
313.697
309.533
305.371
301.211
297.051
292.892
288.734
284.576
280.419
276.262
272.105
267.948
263.792
259.636
255.479
251.323
247.167
243.011
238.855
234.699
230.543
226.387
222.231
218.076
213.92
209.764
205.608
201.452
197.296
193.14
188.984
184.829
180.673
176.517
172.361
168.205
164.049
159.893
155.738
151.582
147.426
143.27
139.114
134.958
130.802
126.647
122.491
118.335
114.179
110.023
105.867
101.712
97.5558
93.3999
89.2441
85.0883
80.9325
76.7767
72.6209
68.4652
64.3095
60.1539
55.9984
51.8431
47.688
43.5333
39.3791
35.2258
31.0736
26.9233
22.7756
18.6317
14.4926
10.3591
6.22865
2.09055
421.036
414.375
410.103
404.639
399.906
395.078
390.475
385.921
381.462
377.054
372.697
368.379
364.092
359.83
355.59
351.365
347.154
342.954
338.762
334.578
330.399
326.225
322.054
317.886
313.721
309.558
305.396
301.235
297.075
292.916
288.758
284.6
280.443
276.286
272.129
267.973
263.816
259.66
255.504
251.347
247.191
243.035
238.879
234.723
230.568
226.412
222.256
218.1
213.944
209.788
205.632
201.476
197.32
193.165
189.009
184.853
180.697
176.541
172.385
168.229
164.074
159.918
155.762
151.606
147.45
143.294
139.138
134.983
130.827
126.671
122.515
118.359
114.203
110.048
105.892
101.736
97.58
93.4242
89.2684
85.1126
80.9568
76.801
72.6452
68.4895
64.3338
60.1782
56.0227
51.8673
47.7123
43.5575
39.4034
35.25
31.0979
26.9476
22.7999
18.6561
14.517
10.3842
6.25238
2.11083
420.919
414.395
410.139
404.669
399.93
395.099
390.497
385.943
381.484
377.076
372.719
368.401
364.114
359.852
355.611
351.387
347.176
342.976
338.784
334.6
330.421
326.246
322.076
317.908
313.743
309.579
305.417
301.257
297.097
292.938
288.78
284.622
280.465
276.308
272.151
267.994
263.838
259.681
255.525
251.369
247.213
243.057
238.901
234.745
230.589
226.433
222.277
218.121
213.965
209.81
205.654
201.498
197.342
193.186
189.03
184.874
180.719
176.563
172.407
168.251
164.095
159.939
155.783
151.628
147.472
143.316
139.16
135.004
130.848
126.693
122.537
118.381
114.225
110.069
105.913
101.757
97.6016
93.4458
89.29
85.1342
80.9783
76.8226
72.6668
68.5111
64.3554
60.1998
56.0443
51.8889
47.7338
43.5791
39.4249
35.2716
31.1195
26.9692
22.8214
18.6777
14.5386
10.4067
6.2735
2.12881
420.82
414.412
410.169
404.696
399.951
395.118
390.517
385.962
381.503
377.095
372.739
368.42
364.133
359.871
355.63
351.406
347.195
342.995
338.803
334.619
330.44
326.265
322.095
317.927
313.762
309.598
305.436
301.276
297.116
292.957
288.799
284.641
280.484
276.326
272.17
268.013
263.857
259.7
255.544
251.388
247.232
243.076
238.92
234.764
230.608
226.452
222.296
218.14
213.984
209.829
205.673
201.517
197.361
193.205
189.049
184.893
180.737
176.582
172.426
168.27
164.114
159.958
155.802
151.646
147.491
143.335
139.179
135.023
130.867
126.711
122.556
118.4
114.244
110.088
105.932
101.776
97.6205
93.4647
89.3089
85.153
80.9972
76.8414
72.6857
68.5299
64.3743
60.2186
56.0631
51.9078
47.7527
43.598
39.4438
35.2905
31.1383
26.9881
22.8403
18.6966
14.5576
10.4263
6.292
2.14451
420.737
414.425
410.195
404.719
399.969
395.135
390.533
385.979
381.519
377.111
372.755
368.436
364.149
359.888
355.647
351.422
347.211
343.011
338.819
334.635
330.456
326.282
322.111
317.943
313.778
309.614
305.452
301.292
297.132
292.973
288.815
284.657
280.5
276.343
272.186
268.029
263.873
259.716
255.56
251.404
247.248
243.092
238.936
234.78
230.624
226.468
222.312
218.156
214.001
209.845
205.689
201.533
197.377
193.221
189.065
184.91
180.754
176.598
172.442
168.286
164.13
159.974
155.819
151.663
147.507
143.351
139.195
135.039
130.883
126.728
122.572
118.416
114.26
110.104
105.948
101.793
97.6367
93.4809
89.3251
85.1692
81.0134
76.8576
72.7019
68.5461
64.3904
60.2348
56.0793
51.924
47.7689
43.6142
39.46
35.3067
31.1545
27.0042
22.8565
18.7129
14.5738
10.4433
6.30787
2.15795
420.669
414.434
410.217
404.738
399.984
395.148
390.547
385.992
381.533
377.125
372.769
368.45
364.163
359.901
355.66
351.436
347.225
343.024
338.833
334.648
330.469
326.295
322.124
317.957
313.791
309.628
305.466
301.305
297.146
292.987
288.828
284.671
280.513
276.356
272.199
268.043
263.886
259.73
255.574
251.418
247.262
243.106
238.95
234.794
230.638
226.482
222.326
218.17
214.014
209.858
205.702
201.546
197.391
193.235
189.079
184.923
180.767
176.611
172.455
168.3
164.144
159.988
155.832
151.676
147.52
143.364
139.209
135.053
130.897
126.741
122.585
118.429
114.274
110.118
105.962
101.806
97.6502
93.4944
89.3386
85.1827
81.0269
76.8711
72.7154
68.5596
64.4039
60.2483
56.0928
51.9375
47.7824
43.6277
39.4735
35.3202
31.168
27.0177
22.8699
18.7264
14.5874
10.4574
6.32111
2.16913
420.616
414.442
410.234
404.753
399.996
395.159
390.557
386.003
381.544
377.136
372.78
368.461
364.174
359.912
355.671
351.447
347.236
343.035
338.844
334.659
330.48
326.306
322.135
317.967
313.802
309.639
305.477
301.316
297.156
292.997
288.839
284.681
280.524
276.367
272.21
268.054
263.897
259.741
255.585
251.428
247.272
243.116
238.96
234.804
230.648
226.493
222.337
218.181
214.025
209.869
205.713
201.557
197.401
193.246
189.09
184.934
180.778
176.622
172.466
168.31
164.155
159.999
155.843
151.687
147.531
143.375
139.219
135.064
130.908
126.752
122.596
118.44
114.284
110.129
105.973
101.817
97.661
93.5052
89.3494
85.1935
81.0377
76.8819
72.7262
68.5704
64.4147
60.2591
56.1036
51.9483
47.7932
43.6385
39.4843
35.331
31.1788
27.0285
22.8807
18.7372
14.5982
10.4687
6.3317
2.17807
420.576
414.447
410.247
404.765
400.005
395.167
390.566
386.011
381.552
377.144
372.788
368.469
364.182
359.92
355.679
351.455
347.244
343.043
338.852
334.667
330.488
326.314
322.143
317.976
313.81
309.647
305.485
301.324
297.164
293.006
288.847
284.689
280.532
276.375
272.218
268.062
263.905
259.749
255.593
251.437
247.28
243.124
238.968
234.812
230.657
226.501
222.345
218.189
214.033
209.877
205.721
201.565
197.409
193.254
189.098
184.942
180.786
176.63
172.474
168.318
164.163
160.007
155.851
151.695
147.539
143.383
139.228
135.072
130.916
126.76
122.604
118.448
114.292
110.137
105.981
101.825
97.6691
93.5133
89.3574
85.2016
81.0458
76.89
72.7343
68.5785
64.4228
60.2672
56.1117
51.9564
47.8013
43.6466
39.4924
35.339
31.1869
27.0366
22.8888
18.7453
14.6064
10.4772
6.33966
2.18477
420.55
414.45
410.256
404.773
400.011
395.172
390.571
386.017
381.558
377.149
372.793
368.474
364.187
359.926
355.685
351.46
347.249
343.049
338.857
334.673
330.494
326.319
322.149
317.981
313.816
309.652
305.49
301.33
297.17
293.011
288.853
284.695
280.537
276.38
272.224
268.067
263.911
259.754
255.598
251.442
247.286
243.13
238.974
234.818
230.662
226.506
222.35
218.194
214.038
209.882
205.727
201.571
197.415
193.259
189.103
184.947
180.791
176.636
172.48
168.324
164.168
160.012
155.856
151.7
147.545
143.389
139.233
135.077
130.921
126.765
122.61
118.454
114.298
110.142
105.986
101.83
97.6745
93.5187
89.3628
85.207
81.0512
76.8954
72.7397
68.5839
64.4282
60.2726
56.1171
51.9618
47.8067
43.652
39.4978
35.3444
31.1923
27.042
22.8942
18.7507
14.6118
10.4829
6.34496
2.18923
420.537
414.451
410.26
404.777
400.014
395.175
390.574
386.019
381.561
377.152
372.796
368.477
364.19
359.928
355.687
351.463
347.252
343.051
338.86
334.675
330.496
326.322
322.151
317.984
313.818
309.655
305.493
301.332
297.173
293.014
288.855
284.698
280.54
276.383
272.226
268.07
263.913
259.757
255.601
251.445
247.289
243.133
238.977
234.821
230.665
226.509
222.353
218.197
214.041
209.885
205.729
201.573
197.418
193.262
189.106
184.95
180.794
176.638
172.482
168.327
164.171
160.015
155.859
151.703
147.547
143.391
139.236
135.08
130.924
126.768
122.612
118.456
114.301
110.145
105.989
101.833
97.6772
93.5214
89.3655
85.2097
81.0539
76.8981
72.7424
68.5866
64.4309
60.2753
56.1198
51.9645
47.8094
43.6547
39.5005
35.3471
31.195
27.0447
22.8969
18.7535
14.6145
10.4857
6.34761
2.19146
420.537
414.451
410.26
404.777
400.014
395.175
390.574
386.019
381.561
377.152
372.796
368.477
364.19
359.928
355.687
351.463
347.252
343.051
338.86
334.675
330.496
326.322
322.151
317.984
313.818
309.655
305.493
301.332
297.173
293.014
288.855
284.698
280.54
276.383
272.226
268.07
263.913
259.757
255.601
251.445
247.289
243.133
238.977
234.821
230.665
226.509
222.353
218.197
214.041
209.885
205.729
201.573
197.418
193.262
189.106
184.95
180.794
176.638
172.482
168.327
164.171
160.015
155.859
151.703
147.547
143.391
139.236
135.08
130.924
126.768
122.612
118.456
114.301
110.145
105.989
101.833
97.6772
93.5214
89.3656
85.2097
81.0539
76.8981
72.7424
68.5866
64.4309
60.2753
56.1198
51.9645
47.8094
43.6547
39.5005
35.3471
31.195
27.0447
22.8969
18.7535
14.6145
10.4857
6.34762
2.19146
420.55
414.45
410.256
404.773
400.011
395.172
390.571
386.017
381.558
377.149
372.793
368.474
364.187
359.926
355.685
351.46
347.249
343.049
338.857
334.673
330.494
326.319
322.149
317.981
313.816
309.652
305.49
301.33
297.17
293.011
288.853
284.695
280.537
276.38
272.224
268.067
263.911
259.754
255.598
251.442
247.286
243.13
238.974
234.818
230.662
226.506
222.35
218.194
214.038
209.882
205.727
201.571
197.415
193.259
189.103
184.947
180.791
176.636
172.48
168.324
164.168
160.012
155.856
151.7
147.545
143.389
139.233
135.077
130.921
126.765
122.61
118.454
114.298
110.142
105.986
101.83
97.6745
93.5187
89.3629
85.207
81.0512
76.8954
72.7397
68.5839
64.4282
60.2726
56.1171
51.9618
47.8067
43.652
39.4978
35.3444
31.1923
27.042
22.8942
18.7508
14.6118
10.4829
6.34496
2.18923
420.576
414.447
410.247
404.765
400.005
395.167
390.566
386.011
381.552
377.144
372.788
368.469
364.182
359.92
355.679
351.455
347.244
343.043
338.852
334.667
330.488
326.314
322.143
317.976
313.81
309.647
305.485
301.324
297.164
293.006
288.847
284.689
280.532
276.375
272.218
268.062
263.905
259.749
255.593
251.437
247.28
243.124
238.968
234.812
230.657
226.501
222.345
218.189
214.033
209.877
205.721
201.565
197.409
193.254
189.098
184.942
180.786
176.63
172.474
168.318
164.163
160.007
155.851
151.695
147.539
143.383
139.228
135.072
130.916
126.76
122.604
118.448
114.292
110.137
105.981
101.825
97.6691
93.5133
89.3575
85.2016
81.0458
76.89
72.7343
68.5785
64.4228
60.2672
56.1117
51.9564
47.8013
43.6466
39.4924
35.3391
31.1869
27.0366
22.8888
18.7453
14.6064
10.4772
6.33966
2.18477
420.616
414.442
410.234
404.753
399.996
395.159
390.557
386.003
381.544
377.136
372.78
368.461
364.174
359.912
355.671
351.447
347.236
343.035
338.844
334.659
330.48
326.306
322.135
317.967
313.802
309.639
305.477
301.316
297.156
292.997
288.839
284.681
280.524
276.367
272.21
268.054
263.897
259.741
255.585
251.428
247.272
243.116
238.96
234.804
230.648
226.493
222.337
218.181
214.025
209.869
205.713
201.557
197.401
193.246
189.09
184.934
180.778
176.622
172.466
168.31
164.155
159.999
155.843
151.687
147.531
143.375
139.219
135.064
130.908
126.752
122.596
118.44
114.284
110.129
105.973
101.817
97.661
93.5052
89.3494
85.1935
81.0377
76.8819
72.7262
68.5704
64.4147
60.2591
56.1036
51.9483
47.7932
43.6385
39.4843
35.331
31.1788
27.0285
22.8807
18.7372
14.5982
10.4687
6.33171
2.17807
420.669
414.434
410.217
404.738
399.984
395.148
390.547
385.992
381.533
377.125
372.769
368.45
364.163
359.901
355.66
351.436
347.225
343.024
338.833
334.648
330.469
326.295
322.124
317.957
313.791
309.628
305.466
301.305
297.146
292.987
288.828
284.671
280.513
276.356
272.199
268.043
263.886
259.73
255.574
251.418
247.262
243.106
238.95
234.794
230.638
226.482
222.326
218.17
214.014
209.858
205.702
201.546
197.391
193.235
189.079
184.923
180.767
176.611
172.455
168.3
164.144
159.988
155.832
151.676
147.52
143.364
139.209
135.053
130.897
126.741
122.585
118.429
114.274
110.118
105.962
101.806
97.6502
93.4944
89.3386
85.1828
81.0269
76.8711
72.7154
68.5596
64.404
60.2483
56.0928
51.9375
47.7824
43.6277
39.4735
35.3202
31.168
27.0177
22.8699
18.7264
14.5874
10.4574
6.32111
2.16913
420.737
414.425
410.196
404.719
399.969
395.135
390.533
385.979
381.52
377.111
372.755
368.436
364.149
359.888
355.647
351.422
347.211
343.011
338.819
334.635
330.456
326.282
322.111
317.943
313.778
309.614
305.452
301.292
297.132
292.973
288.815
284.657
280.5
276.343
272.186
268.029
263.873
259.716
255.56
251.404
247.248
243.092
238.936
234.78
230.624
226.468
222.312
218.156
214.001
209.845
205.689
201.533
197.377
193.221
189.065
184.909
180.754
176.598
172.442
168.286
164.13
159.974
155.819
151.663
147.507
143.351
139.195
135.039
130.883
126.728
122.572
118.416
114.26
110.104
105.948
101.793
97.6367
93.4809
89.3251
85.1693
81.0135
76.8577
72.7019
68.5461
64.3905
60.2348
56.0793
51.924
47.7689
43.6142
39.46
35.3067
31.1545
27.0043
22.8565
18.7129
14.5739
10.4433
6.30788
2.15795
420.82
414.412
410.169
404.696
399.951
395.118
390.517
385.962
381.503
377.095
372.739
368.42
364.133
359.871
355.63
351.406
347.195
342.995
338.803
334.619
330.44
326.265
322.095
317.927
313.762
309.598
305.436
301.276
297.116
292.957
288.799
284.641
280.483
276.326
272.17
268.013
263.857
259.7
255.544
251.388
247.232
243.076
238.92
234.764
230.608
226.452
222.296
218.14
213.984
209.828
205.673
201.517
197.361
193.205
189.049
184.893
180.737
176.582
172.426
168.27
164.114
159.958
155.802
151.646
147.491
143.335
139.179
135.023
130.867
126.711
122.556
118.4
114.244
110.088
105.932
101.776
97.6206
93.4647
89.3089
85.1531
80.9973
76.8415
72.6857
68.53
64.3743
60.2187
56.0632
51.9078
47.7527
43.598
39.4438
35.2905
31.1384
26.9881
22.8403
18.6966
14.5576
10.4264
6.29201
2.14451
420.919
414.396
410.139
404.669
399.93
395.099
390.497
385.943
381.484
377.076
372.719
368.401
364.114
359.852
355.611
351.387
347.176
342.976
338.784
334.6
330.421
326.246
322.076
317.908
313.743
309.579
305.417
301.257
297.097
292.938
288.78
284.622
280.465
276.308
272.151
267.994
263.838
259.681
255.525
251.369
247.213
243.057
238.901
234.745
230.589
226.433
222.277
218.121
213.965
209.81
205.654
201.498
197.342
193.186
189.03
184.874
180.719
176.563
172.407
168.251
164.095
159.939
155.783
151.628
147.472
143.316
139.16
135.004
130.848
126.693
122.537
118.381
114.225
110.069
105.913
101.757
97.6017
93.4458
89.29
85.1342
80.9784
76.8226
72.6668
68.5111
64.3554
60.1998
56.0443
51.8889
47.7339
43.5791
39.425
35.2716
31.1195
26.9692
22.8215
18.6777
14.5387
10.4067
6.27351
2.12881
421.036
414.375
410.103
404.639
399.906
395.078
390.475
385.921
381.462
377.054
372.697
368.379
364.092
359.831
355.59
351.365
347.154
342.954
338.762
334.578
330.399
326.225
322.054
317.886
313.721
309.558
305.396
301.235
297.075
292.916
288.758
284.6
280.443
276.286
272.129
267.973
263.816
259.66
255.504
251.347
247.191
243.035
238.879
234.723
230.567
226.412
222.256
218.1
213.944
209.788
205.632
201.476
197.32
193.165
189.009
184.853
180.697
176.541
172.385
168.229
164.074
159.918
155.762
151.606
147.45
143.294
139.138
134.983
130.827
126.671
122.515
118.359
114.203
110.048
105.892
101.736
97.5801
93.4242
89.2684
85.1126
80.9568
76.801
72.6452
68.4895
64.3338
60.1782
56.0227
51.8674
47.7123
43.5576
39.4034
35.2501
31.0979
26.9476
22.7999
18.6561
14.517
10.3842
6.25239
2.11083
421.172
414.348
410.063
404.605
399.879
395.053
390.451
385.896
381.437
377.029
372.673
368.354
364.067
359.806
355.565
351.341
347.13
342.93
338.738
334.554
330.375
326.2
322.03
317.862
313.697
309.533
305.371
301.211
297.051
292.892
288.734
284.576
280.419
276.262
272.105
267.948
263.792
259.636
255.479
251.323
247.167
243.011
238.855
234.699
230.543
226.387
222.231
218.075
213.92
209.764
205.608
201.452
197.296
193.14
188.984
184.829
180.673
176.517
172.361
168.205
164.049
159.893
155.738
151.582
147.426
143.27
139.114
134.958
130.802
126.647
122.491
118.335
114.179
110.023
105.867
101.712
97.5558
93.4
89.2441
85.0883
80.9325
76.7767
72.6209
68.4652
64.3095
60.1539
55.9984
51.8431
47.688
43.5333
39.3791
35.2258
31.0737
26.9234
22.7757
18.6318
14.4927
10.3591
6.22866
2.09056
421.329
414.315
410.018
404.568
399.848
395.025
390.423
385.869
381.409
377.001
372.645
368.327
364.04
359.779
355.538
351.314
347.103
342.902
338.711
334.527
330.348
326.173
322.003
317.835
313.67
309.506
305.344
301.184
297.024
292.865
288.707
284.549
280.392
276.235
272.078
267.921
263.765
259.609
255.452
251.296
247.14
242.984
238.828
234.672
230.516
226.36
222.204
218.049
213.893
209.737
205.581
201.425
197.269
193.113
188.957
184.802
180.646
176.49
172.334
168.178
164.022
159.866
155.711
151.555
147.399
143.243
139.087
134.931
130.776
126.62
122.464
118.308
114.152
109.996
105.84
101.685
97.5288
93.373
89.2172
85.0613
80.9055
76.7497
72.594
68.4382
64.2825
60.1269
55.9714
51.8161
47.661
43.5063
39.3521
35.1988
31.0467
26.8964
22.7487
18.6048
14.4656
10.3312
6.20231
2.06796
421.509
414.273
409.968
404.528
399.815
394.995
390.392
385.838
381.379
376.971
372.615
368.296
364.01
359.749
355.508
351.284
347.073
342.873
338.681
334.497
330.318
326.144
321.973
317.805
313.64
309.477
305.315
301.154
296.994
292.835
288.677
284.519
280.362
276.205
272.048
267.892
263.735
259.579
255.423
251.267
247.11
242.954
238.798
234.642
230.487
226.331
222.175
218.019
213.863
209.707
205.551
201.395
197.239
193.084
188.928
184.772
180.616
176.46
172.304
168.148
163.993
159.837
155.681
151.525
147.369
143.213
139.058
134.902
130.746
126.59
122.434
118.278
114.122
109.967
105.811
101.655
97.4992
93.3433
89.1875
85.0317
80.8759
76.7201
72.5643
68.4086
64.2529
60.0973
55.9418
51.7864
47.6314
43.4767
39.3225
35.1692
31.0171
26.8668
22.7191
18.5751
14.4359
10.3008
6.17337
2.04303
421.714
414.222
409.913
404.484
399.778
394.962
390.358
385.805
381.345
376.938
372.582
368.264
363.977
359.716
355.475
351.251
347.04
342.84
338.649
334.464
330.286
326.111
321.941
317.773
313.608
309.444
305.282
301.122
296.962
292.803
288.645
284.487
280.33
276.173
272.016
267.859
263.703
259.547
255.39
251.234
247.078
242.922
238.766
234.61
230.454
226.298
222.142
217.987
213.831
209.675
205.519
201.363
197.207
193.051
188.895
184.74
180.584
176.428
172.272
168.116
163.96
159.804
155.649
151.493
147.337
143.181
139.025
134.869
130.714
126.558
122.402
118.246
114.09
109.934
105.779
101.623
97.4669
93.311
89.1552
84.9994
80.8436
76.6878
72.532
68.3763
64.2206
60.065
55.9095
51.7542
47.5991
43.4444
39.2902
35.1369
30.9848
26.8345
22.6869
18.5428
14.4035
10.2677
6.14192
2.01578
421.95
414.158
409.854
404.438
399.738
394.925
390.322
385.769
381.309
376.902
372.546
368.228
363.942
359.681
355.44
351.216
347.005
342.805
338.614
334.43
330.251
326.077
321.906
317.738
313.573
309.41
305.248
301.087
296.927
292.769
288.61
284.452
280.295
276.138
271.981
267.825
263.668
259.512
255.356
251.2
247.043
242.887
238.731
234.576
230.42
226.264
222.108
217.952
213.796
209.64
205.484
201.328
197.173
193.017
188.861
184.705
180.549
176.393
172.237
168.081
163.926
159.77
155.614
151.458
147.302
143.146
138.991
134.835
130.679
126.523
122.367
118.211
114.056
109.9
105.744
101.588
97.4322
93.2764
89.1205
84.9647
80.8089
76.6531
72.4973
68.3416
64.1859
60.0303
55.8748
51.7195
47.5644
43.4097
39.2556
35.1023
30.9502
26.7999
22.6523
18.5081
14.3688
10.2324
6.10815
1.98637
422.221
414.081
409.791
404.39
399.696
394.887
390.283
385.731
381.271
376.864
372.509
368.191
363.905
359.644
355.403
351.179
346.968
342.768
338.577
334.393
330.214
326.04
321.869
317.702
313.536
309.373
305.211
301.05
296.891
292.732
288.574
284.416
280.258
276.101
271.945
267.788
263.632
259.475
255.319
251.163
247.007
242.851
238.695
234.539
230.383
226.227
222.071
217.915
213.759
209.603
205.448
201.292
197.136
192.98
188.824
184.668
180.512
176.357
172.201
168.045
163.889
159.733
155.577
151.421
147.266
143.11
138.954
134.798
130.642
126.486
122.331
118.175
114.019
109.863
105.707
101.551
97.3955
93.2397
89.0839
84.928
80.7722
76.6164
72.4607
68.3049
64.1493
59.9936
55.8382
51.6828
47.5278
43.3731
39.2189
35.0656
30.9136
26.7633
22.6157
18.4714
14.332
10.1951
6.07231
1.95496
422.526
413.986
409.724
404.341
399.651
394.846
390.241
385.69
381.231
376.824
372.469
368.151
363.865
359.605
355.364
351.14
346.93
342.73
338.539
334.354
330.176
326.001
321.831
317.663
313.498
309.335
305.173
301.012
296.852
292.693
288.535
284.377
280.22
276.063
271.906
267.75
263.593
259.437
255.281
251.125
246.968
242.812
238.656
234.5
230.345
226.189
222.033
217.877
213.721
209.565
205.409
201.253
197.097
192.942
188.786
184.63
180.474
176.318
172.162
168.006
163.851
159.695
155.539
151.383
147.227
143.071
138.916
134.76
130.604
126.448
122.292
118.136
113.98
109.825
105.669
101.513
97.3572
93.2013
89.0455
84.8897
80.7339
76.5781
72.4223
68.2666
64.1109
59.9553
55.7998
51.6445
47.4894
43.3347
39.1806
35.0273
30.8752
26.725
22.5774
18.4331
14.2937
10.1563
6.0346
1.9217
422.865
413.875
409.66
404.295
399.607
394.807
390.202
385.652
381.193
376.786
372.431
368.114
363.828
359.567
355.327
351.103
346.893
342.693
338.502
334.318
330.139
325.965
321.794
317.627
313.461
309.298
305.136
300.976
296.816
292.657
288.499
284.341
280.184
276.027
271.87
267.713
263.557
259.4
255.244
251.088
246.932
242.776
238.62
234.464
230.308
226.152
221.996
217.84
213.685
209.529
205.373
201.217
197.061
192.905
188.749
184.593
180.438
176.282
172.126
167.97
163.814
159.658
155.503
151.347
147.191
143.035
138.879
134.723
130.567
126.412
122.256
118.1
113.944
109.788
105.632
101.477
97.3208
93.1649
89.0091
84.8533
80.6975
76.5417
72.3859
68.2302
64.0745
59.9189
55.7634
51.6081
47.453
43.2983
39.1442
34.9909
30.8389
26.6886