/*--------------------------------*- C++ -*----------------------------------*\
| =========                 |                                                 |
| \\      /  F ield         | OpenFOAM: The Open Source CFD Toolbox           |
|  \\    /   O peration     | Version:  2.3.0                                 |
|   \\  /    A nd           | Web:      www.OpenFOAM.org                      |
|    \\/     M anipulation  |                                                 |
\*---------------------------------------------------------------------------*/
FoamFile
{
    version     2.0;
    format      ascii;
    class       volScalarField;
    location    "2";
    object      pB;
}
// * * * * * * * * * * * * * * * * * * * * * * * * * * * * * * * * * * * * * //

dimensions      [1 1 -3 0 0 -1 0];

internalField   nonuniform List<scalar> 
4000
(
26.0972
56.5434
72.2501
77.4504
76.648
71.9419
65.2863
57.8054
50.2747
43.1169
36.5698
30.7327
25.6269
21.2243
17.4706
14.299
11.6389
9.42147
7.58257
6.06434
4.81567
3.79214
2.95564
2.27383
1.71939
1.26954
0.905244
0.610809
0.37322
0.181842
0.0278987
-0.095725
-0.194881
-0.274283
-0.337803
-0.388531
-0.42902
-0.46127
-0.486957
-0.507366
-0.523589
-0.536449
-0.546655
-0.554723
-0.56112
-0.566158
-0.570152
-0.573284
-0.575764
-0.5777
-0.579233
-0.580421
-0.581362
-0.58208
-0.582653
-0.583078
-0.583418
-0.583663
-0.58386
-0.583994
-0.584104
-0.584167
-0.584221
-0.584236
-0.584245
-0.584217
-0.584179
-0.584099
-0.583998
-0.583839
-0.583637
-0.583346
-0.582968
-0.582446
-0.581761
-0.580833
-0.579607
-0.57796
-0.575786
-0.572889
-0.569072
-0.564027
-0.557414
-0.548761
-0.537524
-0.52301
-0.504442
-0.480918
-0.451526
-0.415416
-0.372077
-0.321692
-0.265862
-0.208598
-0.157951
-0.127576
-0.136643
-0.201035
-0.298262
-0.297711
27.9393
56.5196
71.596
76.7477
75.9781
71.3604
64.7895
57.3886
49.9275
42.8307
36.336
30.5438
25.4761
21.1057
17.379
14.2298
11.5882
9.38608
7.55973
6.05178
4.81148
3.79475
2.96376
2.28639
1.73553
1.28856
0.926572
0.633983
0.397869
0.207664
0.0546556
-0.0682272
-0.166796
-0.245734
-0.308889
-0.359328
-0.39959
-0.431662
-0.457209
-0.47751
-0.493647
-0.50644
-0.516594
-0.52462
-0.530987
-0.536
-0.539974
-0.543092
-0.545561
-0.547488
-0.549015
-0.550197
-0.551135
-0.551849
-0.55242
-0.552843
-0.553183
-0.553426
-0.553623
-0.553756
-0.553867
-0.553929
-0.553984
-0.553999
-0.554008
-0.553979
-0.553942
-0.553862
-0.553761
-0.553602
-0.553402
-0.553111
-0.552736
-0.552216
-0.551535
-0.550612
-0.549393
-0.547755
-0.545592
-0.542712
-0.538916
-0.5339
-0.527326
-0.518724
-0.507556
-0.493134
-0.474689
-0.451328
-0.422153
-0.386329
-0.343363
-0.293454
-0.238202
-0.18156
-0.131356
-0.100565
-0.106671
-0.161947
-0.241703
-0.235468
29.0419
56.374
70.6917
75.7119
74.9531
70.4378
63.9817
56.6972
49.3427
42.3424
35.9327
30.2146
25.2107
20.8946
17.2139
14.1033
11.4939
9.31847
7.51413
6.02425
4.79874
3.79408
2.97289
2.30347
1.75903
1.31723
0.959413
0.670166
0.43673
0.248665
0.0973646
-0.0241593
-0.121649
-0.199728
-0.262207
-0.312109
-0.351948
-0.383687
-0.40897
-0.429066
-0.445041
-0.457706
-0.467763
-0.475709
-0.482015
-0.486981
-0.490918
-0.494008
-0.496454
-0.498364
-0.499878
-0.501049
-0.50198
-0.502688
-0.503254
-0.503674
-0.504011
-0.504253
-0.504449
-0.504581
-0.504691
-0.504754
-0.504808
-0.504823
-0.504832
-0.504804
-0.504766
-0.504686
-0.504587
-0.504429
-0.504229
-0.503942
-0.503571
-0.503056
-0.502382
-0.501468
-0.500263
-0.498643
-0.496503
-0.493654
-0.489899
-0.484939
-0.478438
-0.469933
-0.458893
-0.44464
-0.426416
-0.403343
-0.374542
-0.339197
-0.296836
-0.247665
-0.193254
-0.137421
-0.087589
-0.0556649
-0.0568632
-0.0992539
-0.158351
-0.145476
29.148
55.8196
69.3837
74.2071
73.449
69.0596
62.7592
55.6376
48.4367
41.5771
35.2928
29.6847
24.7761
20.5415
16.9298
13.8773
11.3165
9.1814
7.41041
5.94798
4.74495
3.75866
2.95241
2.29512
1.7605
1.32663
0.975194
0.691078
0.461759
0.27699
0.128323
0.00889881
-0.0869198
-0.163671
-0.225098
-0.274165
-0.313345
-0.344564
-0.369436
-0.38921
-0.404931
-0.417396
-0.427296
-0.43512
-0.441329
-0.44622
-0.450097
-0.453143
-0.455553
-0.457436
-0.458929
-0.460083
-0.461002
-0.4617
-0.462258
-0.462673
-0.463005
-0.463244
-0.463438
-0.463569
-0.463679
-0.463741
-0.463795
-0.46381
-0.463819
-0.46379
-0.463753
-0.463674
-0.463575
-0.463419
-0.463222
-0.462939
-0.462574
-0.462068
-0.461406
-0.460507
-0.459322
-0.45773
-0.455627
-0.452826
-0.449136
-0.444262
-0.437875
-0.429521
-0.418679
-0.404684
-0.386797
-0.36416
-0.335919
-0.301284
-0.259805
-0.211687
-0.158441
-0.103658
-0.0541615
-0.020387
-0.0147152
-0.0406573
-0.075895
-0.0531354
28.4936
54.7518
67.6476
72.2419
71.4823
67.2395
61.1326
54.2179
47.2156
40.5395
34.4199
28.9569
24.1741
20.0475
16.5275
13.5523
11.0561
8.97466
7.24811
5.82228
4.64928
3.68752
2.90127
2.26022
1.73876
1.31552
0.972656
0.695437
0.471659
0.29133
0.146215
0.0296251
-0.0639345
-0.138889
-0.198889
-0.246824
-0.285107
-0.315619
-0.339931
-0.359264
-0.374639
-0.386831
-0.396516
-0.40417
-0.410247
-0.415035
-0.418831
-0.421813
-0.424174
-0.426019
-0.427482
-0.428613
-0.429514
-0.430199
-0.430746
-0.431154
-0.43148
-0.431715
-0.431906
-0.432035
-0.432144
-0.432205
-0.432258
-0.432273
-0.432282
-0.432254
-0.432216
-0.432138
-0.432041
-0.431887
-0.431694
-0.431417
-0.43106
-0.430565
-0.429919
-0.429041
-0.427884
-0.426329
-0.424276
-0.421542
-0.41794
-0.413182
-0.406949
-0.398798
-0.388222
-0.374574
-0.357137
-0.335079
-0.307578
-0.273874
-0.233538
-0.186769
-0.134981
-0.0814656
-0.0322806
0.00389108
0.0177856
0.010267
0.000275579
0.0324987
27.3636
53.1709
65.478
69.834
69.077
65.0009
59.1224
52.4559
45.6952
39.244
33.3269
28.0429
23.4157
19.4227
16.0163
13.1369
10.7208
8.70612
7.0348
5.65448
4.51884
3.58763
2.8263
2.2055
1.70046
1.29051
0.95836
0.689772
0.472932
0.298166
0.157506
0.0444757
-0.0462442
-0.118937
-0.177139
-0.223647
-0.260797
-0.290414
-0.314018
-0.332793
-0.347727
-0.359571
-0.368983
-0.376421
-0.382329
-0.386984
-0.390676
-0.393578
-0.395876
-0.397671
-0.399096
-0.400197
-0.401075
-0.401742
-0.402275
-0.402674
-0.402992
-0.403222
-0.403409
-0.403535
-0.403642
-0.403702
-0.403755
-0.403769
-0.403778
-0.40375
-0.403713
-0.403635
-0.40354
-0.40339
-0.403202
-0.402932
-0.402585
-0.402105
-0.401478
-0.400626
-0.399505
-0.397997
-0.396007
-0.393356
-0.389864
-0.385253
-0.379213
-0.371316
-0.361073
-0.347858
-0.330979
-0.30964
-0.28305
-0.250487
-0.211542
-0.166396
-0.116343
-0.0643044
-0.0154638
0.023411
0.0462231
0.0577714
0.0729476
0.111177
25.9367
51.1158
62.8807
67.0003
66.2547
62.3646
56.7472
50.3678
43.8896
37.7024
32.0243
26.9517
22.5087
18.6741
15.4024
12.6366
10.3157
8.38024
6.77456
5.44835
4.35715
3.46232
2.73066
2.13399
1.64854
1.25444
0.935093
0.676824
0.468281
0.300174
0.16485
0.0560879
-0.0312234
-0.101198
-0.157237
-0.202026
-0.237812
-0.266346
-0.289094
-0.307192
-0.321592
-0.333014
-0.342093
-0.34927
-0.354971
-0.359465
-0.363029
-0.365833
-0.368053
-0.369788
-0.371165
-0.372229
-0.373079
-0.373725
-0.37424
-0.374626
-0.374935
-0.375158
-0.37534
-0.375462
-0.375567
-0.375626
-0.375677
-0.375692
-0.375699
-0.375672
-0.375635
-0.375559
-0.375466
-0.37532
-0.375138
-0.374877
-0.374543
-0.37408
-0.373476
-0.372656
-0.371576
-0.370126
-0.36821
-0.36566
-0.362301
-0.357865
-0.352056
-0.344463
-0.334616
-0.321917
-0.305704
-0.285215
-0.259703
-0.22848
-0.19116
-0.147895
-0.0998363
-0.0494938
-0.00110986
0.040508
0.0723066
0.102476
0.141319
0.18116
24.3198
48.6395
59.8709
63.759
63.0357
59.3509
54.0251
47.9691
41.8117
35.9259
30.5212
25.6913
21.4597
17.807
14.6903
12.0551
9.84381
7.99961
6.46952
5.20567
4.16571
3.31282
2.61539
2.04659
1.58375
1.20797
0.903437
0.657109
0.458175
0.297786
0.168653
0.0648471
-0.0185026
-0.0853158
-0.138834
-0.18162
-0.215811
-0.243082
-0.264827
-0.282131
-0.295903
-0.306829
-0.315516
-0.322385
-0.327843
-0.332147
-0.335561
-0.338247
-0.340375
-0.342038
-0.343359
-0.34438
-0.345195
-0.345815
-0.34631
-0.34668
-0.346977
-0.347192
-0.347368
-0.347486
-0.347587
-0.347645
-0.347694
-0.347708
-0.347715
-0.347688
-0.347652
-0.347578
-0.347488
-0.347347
-0.347172
-0.346921
-0.346601
-0.346158
-0.345581
-0.344798
-0.343767
-0.342382
-0.340554
-0.33812
-0.334914
-0.330682
-0.325141
-0.317899
-0.308511
-0.296407
-0.280961
-0.261452
-0.237174
-0.20748
-0.172004
-0.130865
-0.0850519
-0.0366407
0.011086
0.0552229
0.0955018
0.142849
0.202545
0.239994
22.5798
45.7984
56.4725
60.1312
59.4417
55.9811
50.9752
45.2766
39.4758
33.9265
28.8279
24.2699
20.2757
16.8273
13.8846
11.3965
9.30835
7.56678
6.12176
4.92811
3.94583
3.14019
2.48134
1.94395
1.50664
1.15153
0.863712
0.630875
0.442806
0.291151
0.169029
0.0708398
-0.00801566
-0.0712391
-0.121893
-0.162398
-0.194774
-0.220603
-0.241203
-0.2576
-0.270652
-0.28101
-0.289247
-0.295762
-0.30094
-0.305024
-0.308265
-0.310816
-0.312838
-0.314418
-0.315674
-0.316644
-0.317419
-0.318009
-0.31848
-0.318832
-0.319115
-0.31932
-0.319488
-0.319601
-0.319698
-0.319753
-0.319801
-0.319814
-0.319821
-0.319794
-0.319759
-0.319687
-0.3196
-0.319465
-0.319298
-0.319059
-0.318755
-0.318335
-0.317788
-0.317046
-0.316071
-0.314761
-0.313031
-0.310729
-0.307697
-0.303696
-0.298457
-0.291612
-0.282741
-0.271309
-0.256726
-0.238318
-0.215422
-0.187435
-0.154007
-0.115222
-0.0719012
-0.0256801
0.021092
0.0672665
0.114993
0.177188
0.253949
0.28598
20.759
42.6465
52.7155
56.1416
55.4964
52.2778
47.6181
42.3082
36.8974
31.7173
26.9555
22.697
18.9644
15.7415
12.9909
10.665
8.71287
7.08468
5.73366
4.61758
3.69908
2.94569
2.32952
1.8269
1.41783
1.08562
0.816334
0.598456
0.422443
0.280488
0.166155
0.0742128
0.000359106
-0.0588658
-0.106327
-0.144286
-0.174635
-0.198852
-0.21817
-0.23355
-0.245796
-0.255514
-0.263246
-0.269362
-0.274225
-0.278062
-0.281108
-0.283505
-0.285406
-0.286892
-0.288073
-0.288986
-0.289715
-0.29027
-0.290714
-0.291046
-0.291313
-0.291506
-0.291665
-0.291772
-0.291864
-0.291916
-0.291961
-0.291974
-0.291979
-0.291953
-0.291919
-0.29185
-0.291767
-0.291639
-0.29148
-0.291255
-0.290968
-0.290574
-0.290061
-0.289365
-0.288451
-0.287223
-0.285604
-0.283448
-0.280609
-0.276863
-0.271961
-0.265556
-0.257258
-0.246568
-0.23294
-0.215745
-0.194368
-0.16825
-0.137061
-0.100846
-0.0602585
-0.0165112
0.0289132
0.0764062
0.130094
0.20412
0.293587
0.31833
18.8833
39.2328
48.6329
51.8173
51.2252
48.2652
43.9759
39.0834
34.0935
29.3129
24.916
20.9827
17.5344
14.5565
12.0148
9.86539
8.06133
6.55653
5.30782
4.2762
3.42716
2.7307
2.16104
1.69632
1.31805
1.01083
0.761769
0.560228
0.397388
0.266038
0.160228
0.0751255
0.00675222
-0.0480881
-0.0920447
-0.127209
-0.15533
-0.177772
-0.19568
-0.209938
-0.221294
-0.230308
-0.237481
-0.243156
-0.247669
-0.251232
-0.25406
-0.256286
-0.258053
-0.259434
-0.260533
-0.26138
-0.262059
-0.262575
-0.262988
-0.263296
-0.263545
-0.263725
-0.263873
-0.263973
-0.264059
-0.264108
-0.26415
-0.264161
-0.264166
-0.264141
-0.264108
-0.264041
-0.263963
-0.263842
-0.263694
-0.263483
-0.263216
-0.262849
-0.262373
-0.261728
-0.26088
-0.259743
-0.258244
-0.256248
-0.253621
-0.250154
-0.245619
-0.239695
-0.232022
-0.222141
-0.20955
-0.19367
-0.173938
-0.149839
-0.121066
-0.0876229
-0.0500057
-0.00903854
0.0345606
0.0824551
0.140264
0.222638
0.320211
0.336912
16.9688
35.5998
44.2594
47.1876
46.655
43.9688
40.0717
35.6231
31.0819
26.7285
22.7227
19.1381
15.9949
13.2801
10.9628
9.00297
7.35798
5.98579
4.84708
3.90629
3.13195
2.49672
1.97711
1.55318
1.20809
0.927786
0.700516
0.516589
0.36796
0.248055
0.151451
0.0737393
0.0112926
-0.0388032
-0.0789649
-0.111099
-0.136803
-0.157321
-0.173695
-0.186735
-0.197123
-0.20537
-0.211933
-0.217127
-0.221259
-0.224521
-0.227112
-0.229151
-0.23077
-0.232035
-0.233042
-0.233819
-0.234441
-0.234914
-0.235293
-0.235576
-0.235804
-0.235969
-0.236105
-0.236197
-0.236277
-0.236322
-0.23636
-0.236369
-0.236373
-0.236349
-0.236317
-0.236254
-0.236181
-0.236068
-0.235931
-0.235736
-0.23549
-0.235153
-0.234717
-0.234126
-0.233351
-0.232311
-0.230942
-0.229118
-0.226719
-0.223554
-0.219414
-0.214008
-0.207008
-0.197997
-0.186519
-0.172049
-0.154077
-0.132135
-0.105937
-0.0754554
-0.0410403
-0.00317693
0.0380539
0.0852855
0.145134
0.232107
0.333205
0.34207
15.0255
31.7846
39.6298
42.2833
41.8144
39.4151
35.9302
31.9489
27.8817
23.9805
20.3893
17.1748
14.3556
11.9204
9.8415
8.08327
6.60739
5.37622
4.35448
3.5103
2.81544
2.24538
1.77905
1.39855
1.08879
0.837164
0.633123
0.467977
0.334508
0.22682
0.140044
0.0702306
0.0141201
-0.0308998
-0.0669992
-0.095888
-0.119001
-0.137453
-0.152182
-0.163913
-0.17326
-0.180681
-0.186589
-0.191265
-0.194985
-0.197922
-0.200257
-0.202092
-0.203552
-0.204691
-0.205599
-0.206299
-0.206859
-0.207285
-0.207627
-0.207881
-0.208088
-0.208235
-0.208359
-0.208441
-0.208514
-0.208554
-0.208589
-0.208596
-0.208599
-0.208575
-0.208545
-0.208486
-0.208418
-0.208314
-0.208189
-0.20801
-0.207787
-0.207482
-0.207089
-0.206555
-0.205858
-0.204922
-0.203691
-0.202052
-0.199896
-0.197052
-0.193334
-0.18848
-0.182196
-0.17411
-0.163814
-0.150839
-0.134731
-0.11507
-0.0915946
-0.0642495
-0.0332604
0.00116666
0.0394438
0.084856
0.144529
0.232278
0.33253
0.334507
13.0602
27.8188
34.7782
37.1362
36.7329
34.6321
31.5766
28.0836
24.5129
21.0861
17.9305
15.1052
12.6269
10.486
8.65815
7.11217
5.81441
4.73178
3.83329
3.0909
2.4798
1.97842
1.56826
1.23357
0.961082
0.739709
0.560186
0.414871
0.297415
0.202637
0.126255
0.0647956
0.0153913
-0.0242531
-0.0560482
-0.0814957
-0.10186
-0.118119
-0.131101
-0.141439
-0.14968
-0.156222
-0.161432
-0.165554
-0.168836
-0.171427
-0.173487
-0.175105
-0.176393
-0.177397
-0.178199
-0.178816
-0.179311
-0.179686
-0.179988
-0.180211
-0.180394
-0.180523
-0.180633
-0.180704
-0.180769
-0.180803
-0.180834
-0.180839
-0.18084
-0.180817
-0.180789
-0.180734
-0.180672
-0.180578
-0.180465
-0.180305
-0.180106
-0.179834
-0.179486
-0.179014
-0.178399
-0.177572
-0.176488
-0.175043
-0.173144
-0.170639
-0.167367
-0.163094
-0.157567
-0.150454
-0.141402
-0.129998
-0.115846
-0.0985774
-0.0779556
-0.0539071
-0.0265565
0.00410304
0.0388249
0.0812268
0.138485
0.223276
0.318657
0.315208
11.0775
23.7299
29.7377
31.7785
31.4411
29.6484
27.0375
24.0509
20.9962
18.0634
15.3617
12.9423
10.8198
8.98595
7.42025
6.09591
4.98416
4.05668
3.28692
2.65088
2.12729
1.69771
1.34625
1.05945
0.825938
0.636215
0.482346
0.357788
0.257099
0.175844
0.110352
0.0576496
0.0152789
-0.0187249
-0.0460012
-0.0678336
-0.0853089
-0.0992618
-0.110404
-0.119277
-0.126352
-0.131968
-0.136442
-0.139981
-0.1428
-0.145023
-0.146793
-0.148181
-0.149288
-0.150149
-0.150838
-0.151366
-0.151791
-0.152112
-0.152372
-0.152563
-0.152719
-0.152829
-0.152923
-0.152984
-0.153039
-0.153067
-0.153094
-0.153096
-0.153096
-0.153073
-0.153048
-0.152997
-0.152942
-0.152857
-0.152758
-0.152617
-0.152443
-0.152207
-0.151906
-0.151498
-0.150968
-0.150257
-0.149325
-0.148084
-0.146455
-0.144305
-0.141498
-0.137834
-0.133096
-0.127001
-0.119247
-0.109482
-0.0973666
-0.0825859
-0.0649336
-0.0443254
-0.0208101
0.00576351
0.036339
0.0745629
0.127246
0.205575
0.292501
0.285376
9.08113
19.542
24.54
26.2427
25.9702
24.4935
22.34
19.8753
17.3532
14.9308
12.6988
10.6996
8.94542
7.42976
6.13563
5.04096
4.12198
3.3553
2.71898
2.19318
1.76033
1.40518
1.11461
0.877487
0.684407
0.527528
0.400287
0.297279
0.214004
0.146797
0.0926226
0.0490255
0.0139701
-0.0141646
-0.0367371
-0.0548046
-0.0692695
-0.0808184
-0.0900428
-0.0973874
-0.103245
-0.107893
-0.111598
-0.114527
-0.116861
-0.1187
-0.120165
-0.121313
-0.122229
-0.122939
-0.12351
-0.123946
-0.124297
-0.124561
-0.124776
-0.124932
-0.125062
-0.125151
-0.125229
-0.125277
-0.125323
-0.125344
-0.125365
-0.125365
-0.125363
-0.125341
-0.125319
-0.125273
-0.125224
-0.125149
-0.125064
-0.124943
-0.124796
-0.124596
-0.124345
-0.124004
-0.123563
-0.122971
-0.122198
-0.121168
-0.119818
-0.118037
-0.115713
-0.112681
-0.108762
-0.103722
-0.0973123
-0.0892414
-0.0792325
-0.0670228
-0.0524395
-0.0353967
-0.0158935
0.0063002
0.0321758
0.0651312
0.111249
0.179962
0.255348
0.246386
7.07394
15.2764
19.2156
20.5615
20.3524
19.1977
17.512
15.5818
13.606
11.7077
9.95818
8.39088
7.01557
5.82717
4.81241
3.95403
3.2334
2.63219
2.13319
1.72085
1.3814
1.10288
0.874992
0.689018
0.537581
0.414534
0.314726
0.233926
0.1686
0.115877
0.073375
0.0391707
0.0116644
-0.0104112
-0.0281261
-0.0423043
-0.0536578
-0.0627211
-0.0699617
-0.0757246
-0.0803226
-0.0839686
-0.086877
-0.0891732
-0.0910042
-0.0924445
-0.0935937
-0.0944916
-0.0952093
-0.0957635
-0.096211
-0.0965496
-0.0968248
-0.097029
-0.097197
-0.097317
-0.0974185
-0.0974856
-0.0975467
-0.097582
-0.0976175
-0.0976317
-0.0976472
-0.0976435
-0.0976406
-0.0976191
-0.0975989
-0.0975581
-0.0975165
-0.0974522
-0.0973818
-0.0972815
-0.0971626
-0.0970002
-0.0967995
-0.0965274
-0.0961788
-0.0957098
-0.0951001
-0.094288
-0.0932263
-0.091825
-0.0899993
-0.087617
-0.0845418
-0.0805862
-0.075559
-0.0692298
-0.0613836
-0.051813
-0.0403811
-0.0270093
-0.0116702
0.00588532
0.0265699
0.0532923
0.0911027
0.147496
0.208795
0.199742
5.05856
10.9522
13.7941
14.7673
14.6197
13.7918
12.582
11.1962
9.7772
8.41363
7.15669
6.03053
5.04223
4.1882
3.45893
2.84203
2.32412
1.89203
1.53339
1.23705
0.993079
0.792898
0.629108
0.495441
0.386593
0.298152
0.226411
0.168335
0.121378
0.083482
0.0529305
0.0283456
0.00857244
-0.00729485
-0.0200311
-0.0302216
-0.0383843
-0.0448976
-0.0501025
-0.0542419
-0.0575464
-0.0601632
-0.0622527
-0.0638988
-0.0652129
-0.0662429
-0.0670666
-0.067707
-0.0682208
-0.0686138
-0.068934
-0.0691729
-0.0693694
-0.069512
-0.0696316
-0.0697142
-0.0697865
-0.069831
-0.0698744
-0.0698961
-0.0699209
-0.0699273
-0.0699369
-0.0699299
-0.0699253
-0.0699043
-0.0698867
-0.0698511
-0.069817
-0.0697636
-0.0697083
-0.0696293
-0.0695391
-0.0694156
-0.0692671
-0.0690654
-0.068811
-0.0684678
-0.0680254
-0.067436
-0.066669
-0.0656563
-0.0643402
-0.0626229
-0.0604098
-0.0575631
-0.0539481
-0.0493971
-0.0437581
-0.0368797
-0.0286641
-0.0190472
-0.00799526
0.00470934
0.0197964
0.0394895
0.0675679
0.109461
0.154682
0.147048
3.0374
6.58736
8.3038
8.89266
8.80486
8.3069
7.57871
6.74437
5.88988
5.06863
4.3115
3.63307
3.03765
2.52311
2.08371
1.71202
1.39996
1.13962
0.923537
0.744988
0.597999
0.477394
0.378714
0.298186
0.232609
0.179331
0.136112
0.101131
0.0728459
0.0500232
0.031623
0.0168204
0.00491287
-0.00463838
-0.0123086
-0.0184406
-0.0233552
-0.0272721
-0.0304038
-0.0328895
-0.0348762
-0.036444
-0.0376987
-0.0386818
-0.0394689
-0.0400803
-0.0405717
-0.0409492
-0.0412549
-0.0414834
-0.0416733
-0.0418103
-0.0419263
-0.0420061
-0.0420762
-0.0421202
-0.0421626
-0.042184
-0.0422092
-0.0422169
-0.0422305
-0.0422288
-0.0422322
-0.0422215
-0.0422153
-0.0421947
-0.0421798
-0.0421495
-0.042123
-0.042081
-0.042041
-0.0419839
-0.041923
-0.0418392
-0.0417438
-0.0416137
-0.041455
-0.0412398
-0.0409675
-0.0406043
-0.0401367
-0.039519
-0.0387206
-0.037679
-0.0363415
-0.0346208
-0.0324393
-0.0296929
-0.0262927
-0.022145
-0.0171923
-0.0113913
-0.00471733
0.00297807
0.0121635
0.0242336
0.0415242
0.067322
0.0950381
0.089984
1.01281
2.19843
2.77255
2.96971
2.94067
2.77452
2.53138
2.25275
1.96732
1.69297
1.43999
1.21326
1.01426
0.842272
0.695396
0.571153
0.46684
0.37983
0.307615
0.247956
0.198846
0.158561
0.125602
0.0987136
0.0768185
0.0590398
0.0446163
0.0329546
0.0235237
0.0159228
0.00979473
0.00487273
0.000910745
-0.0022595
-0.00481099
-0.00684183
-0.00847359
-0.00976608
-0.010802
-0.0116158
-0.0122699
-0.0127769
-0.0131872
-0.0134995
-0.0137533
-0.0139412
-0.0140964
-0.0142075
-0.0143027
-0.0143646
-0.0144227
-0.0144564
-0.0144909
-0.0145069
-0.0145268
-0.0145318
-0.0145437
-0.0145417
-0.0145483
-0.0145416
-0.0145437
-0.0145336
-0.0145306
-0.0145161
-0.0145081
-0.014488
-0.0144757
-0.0144508
-0.0144323
-0.0144017
-0.0143775
-0.0143424
-0.0143114
-0.0142678
-0.0142262
-0.0141684
-0.0141064
-0.0140204
-0.0139198
-0.013785
-0.0136195
-0.0134004
-0.0131249
-0.0127653
-0.0123115
-0.0117271
-0.010992
-0.0100659
-0.00892375
-0.0075296
-0.00586813
-0.00392016
-0.00167965
0.000908921
0.0040047
0.00808546
0.0139396
0.022668
0.0320232
0.0302778
-1.01293
-2.19845
-2.77232
-2.96931
-2.94
-2.77371
-2.53066
-2.25218
-1.967
-1.69293
-1.44031
-1.21401
-1.01543
-0.843822
-0.697298
-0.573342
-0.469277
-0.382428
-0.310335
-0.250739
-0.201667
-0.161385
-0.128418
-0.101499
-0.0795755
-0.0617425
-0.0472783
-0.0355463
-0.0260618
-0.0183912
-0.0122067
-0.00721535
-0.00320523
2.71998e-05
0.00261207
0.00469666
0.00635916
0.00770037
0.0087678
0.00963181
0.0103151
0.0108729
0.0113103
0.0116714
0.0119529
0.0121901
0.0123725
0.0125288
0.012645
0.0127502
0.0128244
0.0128945
0.0129418
0.0129897
0.0130203
0.0130546
0.0130733
0.0130991
0.0131112
0.0131324
0.013142
0.0131607
0.0131702
0.0131886
0.0131984
0.013218
0.0132278
0.0132473
0.0132578
0.0132766
0.013285
0.0132977
0.0132987
0.0133017
0.0132893
0.0132746
0.0132397
0.0131961
0.0131244
0.0130301
0.0128926
0.0127118
0.0124628
0.0121383
0.0117058
0.0111506
0.010435
0.00953559
0.00841329
0.00704615
0.00540701
0.0034895
0.00127775
-0.00127352
-0.0043309
-0.0083634
-0.0141645
-0.0228327
-0.032124
-0.0303123
-3.03751
-6.58738
-8.30356
-8.89226
-8.80419
-8.3061
-7.57799
-6.74381
-5.88957
-5.0686
-4.31183
-3.63383
-3.03883
-2.52467
-2.08562
-1.71422
-1.4024
-1.14222
-0.92626
-0.747773
-0.60082
-0.480218
-0.381529
-0.30097
-0.235364
-0.182032
-0.138771
-0.10372
-0.0753811
-0.0524887
-0.0340321
-0.0191604
-0.00720511
0.00240818
0.0101117
0.0162974
0.0212424
0.0252078
0.0283709
0.0309065
0.0329222
0.0345406
0.0358225
0.0368546
0.0376692
0.0383295
0.0388481
0.0392705
0.0395973
0.0398686
0.0400745
0.0402478
0.0403766
0.0404882
0.0405689
0.0406424
0.0406918
0.0407412
0.0407721
0.0408079
0.0408292
0.0408566
0.0408726
0.040895
0.0409066
0.0409258
0.040933
0.0409472
0.0409496
0.0409565
0.0409489
0.0409393
0.0409102
0.0408727
0.0408063
0.0407193
0.0405879
0.0404151
0.0401717
0.0398491
0.0394095
0.0388303
0.0380585
0.0370521
0.0357361
0.0340448
0.0318829
0.0291633
0.0257829
0.0216622
0.0167319
0.0109613
0.00431593
-0.00334219
-0.0124891
-0.024511
-0.0417487
-0.0674863
-0.0951387
-0.0900184
-5.05866
-10.9522
-13.7938
-14.7669
-14.619
-13.791
-12.5813
-11.1956
-9.77691
-8.41362
-7.15704
-6.03131
-5.04343
-4.18978
-3.46086
-2.84424
-2.32657
-1.89464
-1.53612
-1.23983
-0.995902
-0.795722
-0.631922
-0.498222
-0.389345
-0.300848
-0.229065
-0.170918
-0.123907
-0.0859416
-0.0553339
-0.0306805
-0.0108602
0.00506882
0.0178383
0.0280822
0.0362749
0.0428362
0.0480721
0.0522609
0.0555943
0.0582613
0.0603779
0.0620732
0.0634147
0.0644929
0.0653433
0.0660286
0.0665633
0.0669984
0.0673341
0.0676092
0.0678185
0.0679928
0.068123
0.0682352
0.0683149
0.0683878
0.0684373
0.0684874
0.0685205
0.0685565
0.0685791
0.0686054
0.0686189
0.0686376
0.0686422
0.0686511
0.0686455
0.0686405
0.0686168
0.0685851
0.068526
0.0684483
0.0683284
0.0681698
0.0679429
0.0676422
0.0672287
0.0666801
0.0659415
0.0649676
0.0636781
0.0619962
0.059805
0.0569881
0.0533928
0.0488688
0.0432496
0.0363982
0.028205
0.0186183
0.00759485
-0.0050725
-0.020121
-0.0397659
-0.0677915
-0.109625
-0.154783
-0.147082
-7.07403
-15.2763
-19.2154
-20.5611
-20.3517
-19.1969
-17.5114
-15.5813
-13.6057
-11.7077
-9.95856
-8.39169
-7.01679
-5.82877
-4.81436
-3.95626
-3.23587
-2.63481
-2.13592
-1.72364
-1.38423
-1.1057
-0.877805
-0.691796
-0.540328
-0.417223
-0.317372
-0.236501
-0.17112
-0.118328
-0.0757701
-0.0414983
-0.0139457
0.00819131
0.0259393
0.0401705
0.0515534
0.0606641
0.0679352
0.0737468
0.0783732
0.0820691
0.0850044
0.0873502
0.0892081
0.0906957
0.0918709
0.0928135
0.0935517
0.094147
0.0946095
0.0949842
0.095272
0.0955078
0.0956862
0.0958363
0.0959458
0.0960418
0.0961096
0.0961739
0.0962185
0.096263
0.0962919
0.0963222
0.0963374
0.0963556
0.0963577
0.0963614
0.0963478
0.0963309
0.0962913
0.0962376
0.0961492
0.0960317
0.0958592
0.0956302
0.0953094
0.0948829
0.0943021
0.093531
0.0924982
0.0911362
0.0893373
0.0869905
0.0839378
0.0800126
0.0750054
0.0687033
0.060877
0.0513333
0.0399238
0.0265822
0.0112713
-0.00624703
-0.026893
-0.0535671
-0.0913251
-0.147659
-0.208895
-0.199776
-9.0812
-19.5419
-24.5397
-26.2423
-25.9696
-24.4927
-22.3394
-19.8748
-17.353
-14.9309
-12.6992
-10.7004
-8.94668
-7.43139
-6.1376
-5.04321
-4.12446
-3.35793
-2.72172
-2.19598
-1.76316
-1.40801
-1.11742
-0.88026
-0.687147
-0.530209
-0.402923
-0.299843
-0.216513
-0.149237
-0.0950071
-0.0513435
-0.0162429
0.0119526
0.0345578
0.0526781
0.0671715
0.0787672
0.0880215
0.0954139
0.1013
0.105997
0.109729
0.112707
0.115067
0.116953
0.118443
0.119635
0.120571
0.121321
0.121907
0.122378
0.122742
0.123037
0.123262
0.123449
0.123588
0.123706
0.123792
0.12387
0.123926
0.123978
0.124013
0.124047
0.124064
0.124082
0.124082
0.12408
0.124059
0.12403
0.123975
0.1239
0.123782
0.123626
0.123402
0.123104
0.122692
0.122143
0.121398
0.12041
0.11909
0.117348
0.115051
0.112055
0.10816
0.10315
0.0967609
0.0887173
0.0787284
0.0665456
0.0519847
0.034972
0.0154967
-0.00665997
-0.0324968
-0.065404
-0.11147
-0.180124
-0.255447
-0.24642
-11.0776
-23.7298
-29.7373
-31.778
-31.4404
-29.6476
-27.0369
-24.0504
-20.996
-18.0635
-15.3622
-12.9432
-10.8211
-8.98762
-7.42226
-6.09819
-4.98667
-4.05933
-3.28968
-2.65369
-2.13013
-1.70054
-1.34906
-1.06222
-0.82867
-0.638885
-0.48497
-0.360339
-0.259595
-0.178271
-0.112724
-0.0599562
-0.0175416
0.0165225
0.043831
0.0657158
0.0832189
0.0972179
0.10839
0.117309
0.124412
0.130076
0.134577
0.138165
0.141009
0.143278
0.145071
0.146504
0.147629
0.148529
0.149232
0.149795
0.150233
0.150585
0.150855
0.151077
0.151243
0.151383
0.151486
0.151578
0.151644
0.151705
0.151746
0.151784
0.151802
0.151819
0.151816
0.15181
0.151781
0.151741
0.15167
0.151574
0.151429
0.151235
0.150961
0.150596
0.150095
0.149427
0.148524
0.147324
0.145725
0.143616
0.140836
0.137208
0.132494
0.126431
0.118698
0.10896
0.0968655
0.0821118
0.0644819
0.0439034
0.0204158
-0.00612084
-0.0366575
-0.0748334
-0.127466
-0.205735
-0.292599
-0.28541
-13.0602
-27.8186
-34.7779
-37.1357
-36.7322
-34.6313
-31.576
-28.0831
-24.5127
-21.0863
-17.9311
-15.1062
-12.6283
-10.4877
-8.6602
-7.11449
-5.81695
-4.73446
-3.83606
-3.09372
-2.48264
-1.98125
-1.57106
-1.23633
-0.963805
-0.742367
-0.562796
-0.417408
-0.299897
-0.20505
-0.128613
-0.0670892
-0.0176424
0.0220617
0.0538884
0.079388
0.0997796
0.116084
0.129094
0.139478
0.147745
0.154336
0.159572
0.163743
0.16705
0.169683
0.171766
0.173427
0.174733
0.175775
0.17659
0.177241
0.177748
0.178155
0.178467
0.178722
0.178915
0.179076
0.179196
0.1793
0.179377
0.179445
0.179491
0.179532
0.179553
0.179569
0.179564
0.179552
0.179516
0.179464
0.179379
0.179262
0.17909
0.17886
0.178538
0.17811
0.177523
0.17674
0.175684
0.174282
0.172414
0.16995
0.166705
0.162469
0.156966
0.149887
0.140856
0.129481
0.115349
0.0981067
0.0775072
0.0534884
0.0261652
-0.00445743
-0.0391404
-0.0814946
-0.138702
-0.223435
-0.318754
-0.315241
-15.0255
-31.7844
-39.6294
-42.2828
-41.8137
-39.4144
-35.9296
-31.9485
-27.8816
-23.9807
-20.3899
-17.1758
-14.357
-11.9221
-9.84359
-8.08561
-6.60996
-5.37891
-4.35727
-3.51313
-2.81829
-2.24821
-1.78185
-1.40131
-1.09151
-0.83981
-0.635718
-0.470498
-0.336973
-0.229216
-0.142387
-0.0725102
-0.0163586
0.0287204
0.0648507
0.0937914
0.116931
0.135428
0.150185
0.16196
0.171333
0.178802
0.184735
0.189459
0.193203
0.196182
0.198538
0.200414
0.20189
0.203065
0.203986
0.20472
0.205292
0.20575
0.206102
0.206389
0.206607
0.206788
0.206923
0.207039
0.207125
0.207201
0.207252
0.207296
0.207318
0.207334
0.207326
0.207309
0.207266
0.207204
0.207104
0.206968
0.20677
0.206506
0.206138
0.205648
0.204979
0.204087
0.202886
0.201289
0.199165
0.196362
0.192672
0.187855
0.181598
0.173545
0.163271
0.150325
0.134237
0.114603
0.0911499
0.0638344
0.0328725
-0.00151765
-0.0397561
-0.0851208
-0.144743
-0.232435
-0.332626
-0.334539
-16.9687
-35.5996
-44.259
-47.187
-46.6544
-43.968
-40.0712
-35.6227
-31.0818
-26.7287
-22.7233
-19.1391
-15.9963
-13.2819
-10.9649
-9.00536
-7.36058
-5.98851
-4.84989
-3.90913
-3.1348
-2.49955
-1.97991
-1.55593
-1.2108
-0.930419
-0.703096
-0.519094
-0.370408
-0.250435
-0.153777
-0.0760041
-0.0135176
0.0366367
0.0768284
0.109015
0.134745
0.155307
0.171709
0.184792
0.195205
0.203498
0.210086
0.215327
0.219481
0.222783
0.225394
0.227471
0.229106
0.230406
0.231425
0.232235
0.232868
0.233373
0.233764
0.234079
0.234321
0.23452
0.23467
0.234797
0.234892
0.234974
0.23503
0.235077
0.2351
0.235115
0.235105
0.235084
0.235033
0.234961
0.234847
0.234693
0.234471
0.234174
0.233763
0.233215
0.232469
0.231473
0.230134
0.228354
0.225986
0.222863
0.218752
0.213384
0.206411
0.197434
0.185979
0.171538
0.153587
0.131672
0.105496
0.0750443
0.0406563
0.00282978
-0.0383625
-0.085547
-0.145346
-0.232262
-0.3333
-0.342102
-18.8832
-39.2325
-48.6324
-51.8167
-51.2245
-48.2645
-43.9753
-39.0831
-34.0935
-29.3132
-24.9167
-20.9838
-17.5359
-14.5584
-12.017
-9.86782
-8.06396
-6.55927
-5.31064
-4.27906
-3.43003
-2.73354
-2.16384
-1.69906
-1.32075
-1.01345
-0.764334
-0.562716
-0.399819
-0.2684
-0.162538
-0.0773752
-0.00896345
0.0459351
0.0899206
0.125137
0.153284
0.175771
0.193705
0.208005
0.219386
0.228446
0.235641
0.241362
0.245895
0.249497
0.252343
0.254605
0.256387
0.257801
0.25891
0.259791
0.260479
0.261028
0.261453
0.261796
0.262059
0.262275
0.262439
0.262576
0.26268
0.262767
0.262828
0.262877
0.262901
0.262915
0.262903
0.262877
0.26282
0.262738
0.262611
0.26244
0.262195
0.261868
0.261417
0.260814
0.259996
0.258902
0.257434
0.255482
0.252887
0.249463
0.244957
0.239072
0.231427
0.221581
0.209013
0.193163
0.173452
0.149381
0.120629
0.0872159
0.0496259
0.00869559
-0.0348653
-0.0827131
-0.140473
-0.222791
-0.320304
-0.336944
-20.7589
-42.6462
-52.715
-56.141
-55.4957
-52.2771
-47.6176
-42.3079
-36.8975
-31.7177
-26.9562
-22.6982
-18.966
-15.7434
-12.9931
-10.6674
-8.71553
-7.08745
-5.7365
-4.62045
-3.70195
-2.94853
-2.33233
-1.82964
-1.42052
-1.08823
-0.818885
-0.600929
-0.424857
-0.282834
-0.168449
-0.0764476
-0.00255641
0.0567264
0.104215
0.142227
0.172603
0.196864
0.216209
0.231629
0.243899
0.253663
0.261414
0.267575
0.272455
0.27633
0.279391
0.281822
0.283736
0.285254
0.286445
0.287391
0.288129
0.288718
0.289174
0.289541
0.289824
0.290055
0.290232
0.290379
0.290489
0.290582
0.290647
0.290698
0.290723
0.290736
0.290722
0.290691
0.290628
0.290537
0.290399
0.290211
0.289945