/*--------------------------------*- C++ -*----------------------------------*\
| =========                 |                                                 |
| \\      /  F ield         | OpenFOAM: The Open Source CFD Toolbox           |
|  \\    /   O peration     | Version:  2.3.0                                 |
|   \\  /    A nd           | Web:      www.OpenFOAM.org                      |
|    \\/     M anipulation  |                                                 |
\*---------------------------------------------------------------------------*/
FoamFile
{
    version     2.0;
    format      ascii;
    class       surfaceScalarField;
    location    "2";
    object      phi;
}
// * * * * * * * * * * * * * * * * * * * * * * * * * * * * * * * * * * * * * //

dimensions      [0 3 -1 0 0 0 0];

internalField   nonuniform List<scalar> 
7860
(
0.00283434
0.00216566
0.00262127
0.000213075
0.00260892
1.23479e-05
0.00260641
2.50672e-06
0.00260912
-2.70724e-06
0.00260784
1.27829e-06
0.00260673
1.10552e-06
0.00260516
1.57384e-06
0.00260393
1.22419e-06
0.00260285
1.08659e-06
0.00260198
8.67893e-07
0.00260125
7.28089e-07
0.00260065
5.98053e-07
0.00260015
5.00795e-07
0.00259973
4.18366e-07
0.00259938
3.52819e-07
0.00259908
2.98995e-07
0.00259883
2.54094e-07
0.00259861
2.16614e-07
0.00259843
1.85077e-07
0.00259827
1.5849e-07
0.00259813
1.35144e-07
0.00259802
1.15529e-07
0.00259792
9.86146e-08
0.00259783
8.41169e-08
0.00259776
7.13224e-08
0.0025977
6.04527e-08
0.00259765
5.1087e-08
0.00259761
4.33242e-08
0.00259757
3.59022e-08
0.00259754
3.03738e-08
0.00259752
2.51297e-08
0.0025975
2.09889e-08
0.00259748
1.72654e-08
0.00259746
1.42501e-08
0.00259745
1.17337e-08
0.00259744
9.83243e-09
0.00259744
7.63836e-09
0.00259743
6.60351e-09
0.00259742
5.08161e-09
0.00259742
4.4159e-09
0.00259742
3.39695e-09
0.00259741
2.766e-09
0.00259741
2.23155e-09
0.00259741
1.92097e-09
0.00259741
1.24489e-09
0.00259741
1.31683e-09
0.00259741
7.03099e-10
0.0025974
8.70015e-10
0.0025974
4.41188e-10
0.0025974
4.84278e-10
0.0025974
2.80029e-10
0.0025974
3.97861e-10
0.0025974
1.14146e-10
0.0025974
3.39274e-10
0.0025974
2.77419e-11
0.0025974
3.13642e-10
0.0025974
3.29529e-11
0.0025974
2.18954e-10
0.0025974
-1.12741e-11
0.0025974
1.9441e-10
0.0025974
-4.82094e-11
0.0025974
1.49217e-10
0.0025974
-9.723e-11
0.0025974
1.29608e-10
0.0025974
-6.46968e-11
0.0025974
1.30731e-10
0.0025974
-9.70775e-11
0.0025974
1.36382e-10
0.0025974
-6.94483e-11
0.0025974
1.2333e-10
0.0025974
-9.06373e-11
0.0025974
9.80004e-11
0.0025974
-3.62561e-11
0.0025974
1.39977e-10
0.0025974
-3.38985e-11
0.0025974
1.97253e-10
0.0025974
1.042e-10
0.0025974
3.57549e-10
0.0025974
3.09551e-10
0.0025974
6.29907e-10
0.0025974
7.84299e-10
0.0025974
1.25761e-09
0.0025974
1.61437e-09
0.00259739
2.49347e-09
0.00259739
3.45415e-09
0.00259739
5.04972e-09
0.00259738
7.04415e-09
0.00259737
1.01354e-08
0.00259735
1.41358e-08
0.00259733
1.9669e-08
0.00259731
2.61606e-08
0.00259727
3.36218e-08
0.00259724
3.75314e-08
0.0025972
3.34542e-08
0.00259718
2.26273e-08
0.00259708
1.01618e-07
0.00259638
6.96165e-07
0.00259378
2.60292e-06
-1.18997e-06
0.00456768
0.00259798
0.00437543
0.00040532
0.00434663
4.11526e-05
0.00434285
6.27894e-06
0.00434585
-5.70324e-06
0.00434431
2.81627e-06
0.00434267
2.73916e-06
0.00434046
3.78323e-06
0.00433867
3.016e-06
0.00433709
2.66513e-06
0.00433582
2.14329e-06
0.00433475
1.79596e-06
0.00433387
1.47846e-06
0.00433313
1.2388e-06
0.00433251
1.03565e-06
0.00433199
8.73929e-07
0.00433155
7.41264e-07
0.00433117
6.30829e-07
0.00433085
5.38705e-07
0.00433057
4.60965e-07
0.00433034
3.95505e-07
0.00433013
3.3835e-07
0.00432996
2.89909e-07
0.00432981
2.47865e-07
0.00432968
2.1212e-07
0.00432957
1.80651e-07
0.00432948
1.53609e-07
0.0043294
1.30171e-07
0.00432933
1.10666e-07
0.00432928
9.23491e-08
0.00432923
7.82414e-08
0.00432919
6.49389e-08
0.00432916
5.45542e-08
0.00432913
4.50984e-08
0.00432911
3.72452e-08
0.00432909
3.06999e-08
0.00432907
2.57585e-08
0.00432906
2.03527e-08
0.00432905
1.7396e-08
0.00432904
1.34106e-08
0.00432903
1.16406e-08
0.00432903
9.0706e-09
0.00432902
7.4359e-09
0.00432902
5.98099e-09
0.00432902
5.15117e-09
0.00432901
3.60716e-09
0.00432901
3.56654e-09
0.00432901
2.08453e-09
0.00432901
2.42343e-09
0.00432901
1.38776e-09
0.00432901
1.47283e-09
0.004329
9.00086e-10
0.004329
1.09354e-09
0.004329
5.04816e-10
0.004329
9.3335e-10
0.004329
1.81412e-10
0.004329
8.10259e-10
0.004329
1.16879e-10
0.004329
5.46221e-10
0.004329
-2.21361e-11
0.004329
3.78691e-10
0.004329
-1.14699e-10
0.004329
3.06714e-10
0.004329
-2.54916e-10
0.004329
2.7926e-10
0.004329
-1.82929e-10
0.004329
3.10416e-10
0.004329
-2.11671e-10
0.004329
2.54091e-10
0.004329
-1.60265e-10
0.004329
2.58791e-10
0.004329
-2.31522e-10
0.004329
1.8037e-10
0.004329
-1.68851e-10
0.004329
2.68388e-10
0.004329
-1.19194e-10
0.004329
3.62358e-10
0.004329
1.93134e-10
0.004329
8.01141e-10
0.004329
7.54211e-10
0.004329
1.52027e-09
0.004329
1.92033e-09
0.004329
3.15229e-09
0.00432899
4.12455e-09
0.00432899
6.26867e-09
0.00432899
8.72771e-09
0.00432898
1.27466e-08
0.00432897
1.7789e-08
0.00432895
2.54694e-08
0.00432893
3.54816e-08
0.0043289
4.94131e-08
0.00432886
6.60225e-08
0.00432881
8.59793e-08
0.00432875
9.98006e-08
0.00432868
1.04697e-07
0.00432859
1.11154e-07
0.00432827
4.17289e-07
0.00432694
2.02842e-06
0.00432236
7.18318e-06
7.9105e-06
0.00507208
0.0025259
0.00495551
0.000521894
0.00492282
7.38354e-05
0.00492056
8.54398e-06
0.00492238
-7.52643e-06
0.00492122
3.97256e-06
0.00491955
4.41369e-06
0.00491747
5.85691e-06
0.00491572
4.77423e-06
0.00491419
4.19346e-06
0.00491294
3.39221e-06
0.0049119
2.83789e-06
0.00491103
2.33985e-06
0.00491031
1.95909e-06
0.00490971
1.64006e-06
0.0049092
1.38435e-06
0.00490876
1.17512e-06
0.00490839
1.00127e-06
0.00490808
8.56303e-07
0.0049078
7.33828e-07
0.00490757
6.30644e-07
0.00490737
5.40869e-07
0.00490719
4.64437e-07
0.00490704
3.97826e-07
0.00490691
3.41271e-07
0.0049068
2.91633e-07
0.00490671
2.48687e-07
0.00490662
2.11327e-07
0.00490655
1.80069e-07
0.0049065
1.51028e-07
0.00490645
1.282e-07
0.00490641
1.06759e-07
0.00490637
8.99413e-08
0.00490634
7.4684e-08
0.00490632
6.17644e-08
0.0049063
5.09933e-08
0.00490628
4.27869e-08
0.00490627
3.41545e-08
0.00490625
2.90334e-08
0.00490624
2.25244e-08
0.00490624
1.94623e-08
0.00490623
1.53773e-08
0.00490623
1.26475e-08
0.00490622
1.0229e-08
0.00490622
8.78585e-09
0.00490621
6.4423e-09
0.00490621
6.15782e-09
0.00490621
3.84976e-09
0.00490621
4.21249e-09
0.00490621
2.63668e-09
0.00490621
2.66876e-09
0.0049062
1.74701e-09
0.0049062
1.89862e-09
0.0049062
1.0536e-09
0.0049062
1.59154e-09
0.0049062
4.4006e-10
0.0049062
1.28749e-09
0.0049062
2.39177e-10
0.0049062
8.23621e-10
0.0049062
-1.4552e-11
0.0049062
4.79814e-10
0.0049062
-1.97616e-10
0.0049062
3.91395e-10
0.0049062
-4.15063e-10
0.0049062
3.5945e-10
0.0049062
-3.00799e-10
0.0049062
4.44239e-10
0.0049062
-2.72708e-10
0.0049062
3.46972e-10
0.0049062
-2.01567e-10
0.0049062
3.95475e-10
0.0049062
-3.07706e-10
0.0049062
2.56254e-10
0.0049062
-2.74931e-10
0.0049062
3.62593e-10
0.0049062
-1.75329e-10
0.0049062
4.71984e-10
0.0049062
2.63728e-10
0.0049062
1.18071e-09
0.0049062
1.20269e-09
0.0049062
2.37432e-09
0.0049062
3.06056e-09
0.0049062
5.04139e-09
0.00490619
6.71976e-09
0.00490619
1.01014e-08
0.00490619
1.41099e-08
0.00490618
2.05443e-08
0.00490617
2.86845e-08
0.00490615
4.09134e-08
0.00490613
5.6967e-08
0.0049061
7.93842e-08
0.00490606
1.0661e-07
0.004906
1.40866e-07
0.00490593
1.69472e-07
0.00490584
2.00461e-07
0.00490569
2.56446e-07
0.00490522
8.91278e-07
0.0049036
3.64824e-06
0.00489776
1.30261e-05
2.27393e-05
0.00520998
0.00231592
0.00513963
0.000592237
0.00511254
0.000100929
0.00511139
9.68757e-06
0.00511247
-8.60382e-06
0.00511163
4.80968e-06
0.00511016
5.88348e-06
0.00510842
7.60083e-06
0.0051069
6.2921e-06
0.00510559
5.50588e-06
0.00510451
4.47277e-06
0.00510361
3.73803e-06
0.00510286
3.08517e-06
0.00510224
2.58344e-06
0.00510171
2.16372e-06
0.00510127
1.82721e-06
0.00510089
1.55231e-06
0.00510057
1.32424e-06
0.00510029
1.13406e-06
0.00510005
9.73321e-07
0.00509984
8.37764e-07
0.00509967
7.2007e-07
0.00509951
6.19627e-07
0.00509938
5.31793e-07
0.00509926
4.57114e-07
0.00509916
3.9175e-07
0.00509907
3.34966e-07
0.005099
2.8546e-07
0.00509894
2.43712e-07
0.00509888
2.05207e-07
0.00509884
1.74573e-07
0.0050988
1.45852e-07
0.00509876
1.23112e-07
0.00509874
1.02647e-07
0.00509871
8.50542e-08
0.00509869
7.03487e-08
0.00509868
5.90346e-08
0.00509867
4.74404e-08
0.00509865
4.02334e-08
0.00509865
3.14087e-08
0.00509864
2.69988e-08
0.00509863
2.15796e-08
0.00509863
1.77859e-08
0.00509862
1.44832e-08
0.00509862
1.24196e-08
0.00509862
9.37563e-09
0.00509861
8.82419e-09
0.00509861
5.79611e-09
0.00509861
6.05849e-09
0.00509861
4.04999e-09
0.00509861
3.94252e-09
0.0050986
2.73152e-09
0.0050986
2.7516e-09
0.0050986
1.66446e-09
0.0050986
2.2474e-09
0.0050986
7.56938e-10
0.0050986
1.70029e-09
0.0050986
3.8049e-10
0.0050986
1.0282e-09
0.0050986
1.00833e-11
0.0050986
5.27314e-10
0.0050986
-2.94466e-10
0.0050986
4.16984e-10
0.0050986
-5.60546e-10
0.0050986
3.7346e-10
0.0050986
-4.09231e-10
0.0050986
5.18613e-10
0.0050986
-2.8971e-10
0.0050986
4.31586e-10
0.0050986
-2.01557e-10
0.0050986
5.36834e-10
0.0050986
-3.04401e-10
0.0050986
3.46801e-10
0.0050986
-3.17831e-10
0.0050986
4.4208e-10
0.0050986
-1.83468e-10
0.0050986
5.60691e-10
0.0050986
3.23315e-10
0.0050986
1.47818e-09
0.0050986
1.60457e-09
0.0050986
3.11316e-09
0.0050986
4.08329e-09
0.0050986
6.708e-09
0.00509859
9.08322e-09
0.00509859
1.35643e-08
0.00509859
1.89789e-08
0.00509858
2.75447e-08
0.00509857
3.84642e-08
0.00509856
5.47102e-08
0.00509854
7.61596e-08
0.00509851
1.06246e-07
0.00509847
1.4351e-07
0.00509842
1.92646e-07
0.00509835
2.40046e-07
0.00509824
3.11311e-07
0.00509806
4.41073e-07
0.00509749
1.45872e-06
0.00509583
5.30128e-06
0.00508957
1.92898e-05
3.7815e-05
0.00523336
0.00208257
0.00519423
0.000631367
0.00517355
0.000121607
0.00517321
1.00219e-05
0.00517382
-9.21663e-06
0.00517329
5.33944e-06
0.00517211
7.07186e-06
0.00517073
8.9733e-06
0.00516951
7.51031e-06
0.00516846
6.5585e-06
0.00516759
5.3448e-06
0.00516686
4.46521e-06
0.00516626
3.68831e-06
0.00516575
3.08668e-06
0.00516533
2.58791e-06
0.00516497
2.18724e-06
0.00516466
1.85976e-06
0.0051644
1.58841e-06
0.00516417
1.36214e-06
0.00516397
1.1708e-06
0.0051638
1.00923e-06
0.00516365
8.69142e-07
0.00516352
7.49454e-07
0.00516341
6.44438e-07
0.00516331
5.54936e-07
0.00516323
4.76775e-07
0.00516315
4.08671e-07
0.00516309
3.49303e-07
0.00516303
2.98671e-07
0.00516299
2.52336e-07
0.00516295
2.15147e-07
0.00516291
1.8027e-07
0.00516288
1.52395e-07
0.00516286
1.27517e-07
0.00516284
1.05895e-07
0.00516282
8.77299e-08
0.00516281
7.36317e-08
0.00516279
5.94704e-08
0.00516278
5.04073e-08
0.00516278
3.95717e-08
0.00516277
3.38652e-08
0.00516276
2.73121e-08
0.00516276
2.25668e-08
0.00516275
1.84699e-08
0.00516275
1.58155e-08
0.00516275
1.21753e-08
0.00516275
1.13757e-08
0.00516274
7.7476e-09
0.00516274
7.83839e-09
0.00516274
5.49742e-09
0.00516274
5.21666e-09
0.00516274
3.77766e-09
0.00516274
3.62047e-09
0.00516274
2.29864e-09
0.00516274
2.88194e-09
0.00516274
1.10302e-09
0.00516274
2.0511e-09
0.00516273
5.1724e-10
0.00516273
1.16206e-09
0.00516273
3.4724e-11
0.00516273
5.35357e-10
0.00516273
-4.01624e-10
0.00516273
4.03241e-10
0.00516274
-6.85939e-10
0.00516274
3.51586e-10
0.00516274
-5.06662e-10
0.00516274
5.4748e-10
0.00516274
-2.7626e-10
0.00516274
5.08363e-10
0.00516274
-1.83727e-10
0.00516274
6.6633e-10
0.00516273
-2.51906e-10
0.00516273
4.49366e-10
0.00516273
-3.15678e-10
0.00516273
5.11551e-10
0.00516273
-1.48377e-10
0.00516273
6.48331e-10
0.00516273
3.80831e-10
0.00516273
1.70364e-09
0.00516273
1.94372e-09
0.00516273
3.72628e-09
0.00516273
4.94247e-09
0.00516273
8.08348e-09
0.00516273
1.10934e-08
0.00516273
1.65033e-08
0.00516272
2.31142e-08
0.00516272
3.34328e-08
0.00516271
4.66888e-08
0.0051627
6.62802e-08
0.00516268
9.22705e-08
0.00516266
1.28945e-07
0.00516263
1.75284e-07
0.00516258
2.3914e-07
0.00516251
3.08061e-07
0.00516239
4.29108e-07
0.00516219
6.47902e-07
0.0051616
2.04265e-06
0.00516004
6.86782e-06
0.00515415
2.51735e-05
5.09458e-05
0.00522265
0.00185992
0.00520659
0.000647429
0.00519184
0.000136353
0.00519205
9.81176e-06
0.00519238
-9.55e-06
0.00519212
5.59868e-06
0.00519123
7.96053e-06
0.00519023
9.97351e-06
0.00518932
8.42268e-06
0.00518853
7.34608e-06
0.00518787
6.00332e-06
0.00518732
5.01518e-06
0.00518687
4.14582e-06
0.00518648
3.46936e-06
0.00518616
2.9112e-06
0.00518588
2.46257e-06
0.00518565
2.09576e-06
0.00518544
1.79208e-06
0.00518527
1.53885e-06
0.00518511
1.3246e-06
0.00518498
1.14343e-06
0.00518486
9.86466e-07
0.00518476
8.52329e-07
0.00518467
7.34236e-07
0.00518459
6.33298e-07
0.00518452
5.45313e-07
0.00518446
4.68457e-07
0.00518441
4.01029e-07
0.00518437
3.43766e-07
0.00518433
2.91271e-07
0.00518429
2.48887e-07
0.00518427
2.09077e-07
0.00518424
1.7698e-07
0.00518422
1.48539e-07
0.0051842
1.23646e-07
0.00518419
1.02579e-07
0.00518418
8.61052e-08
0.00518417
6.9808e-08
0.00518416
5.91764e-08
0.00518415
4.66764e-08
0.00518414
3.97975e-08
0.00518414
3.23113e-08
0.00518413
2.67902e-08
0.00518413
2.20046e-08
0.00518413
1.8844e-08
0.00518412
1.47131e-08
0.00518412
1.37156e-08
0.00518412
9.61099e-09
0.00518412
9.49514e-09
0.00518412
6.89515e-09
0.00518412
6.43214e-09
0.00518412
4.79924e-09
0.00518411
4.4542e-09
0.00518411
2.8961e-09
0.00518411
3.45596e-09
0.00518411
1.43596e-09
0.00518411
2.33963e-09
0.00518411
6.39848e-10
0.00518411
1.24713e-09
0.00518411
5.56984e-11
0.00518411
5.29564e-10
0.00518411
-5.09918e-10
0.00518411
3.67083e-10
0.00518411
-7.98001e-10
0.00518411
3.06277e-10
0.00518411
-6.0309e-10
0.00518411
5.37123e-10
0.00518411
-2.56065e-10
0.00518411
5.77124e-10
0.00518411
-1.62695e-10
0.00518411
7.80161e-10
0.00518411
-1.70977e-10
0.00518411
5.63924e-10
0.00518411
-2.84125e-10
0.00518411
5.70951e-10
0.00518411
-9.45567e-11
0.00518411
7.29814e-10
0.00518411
4.21652e-10
0.00518411
1.85201e-09
0.00518411
2.19549e-09
0.00518411
4.20167e-09
0.00518411
5.61505e-09
0.00518411
9.14937e-09
0.00518411
1.26986e-08
0.00518411
1.886e-08
0.0051841
2.64418e-08
0.0051841
3.81151e-08
0.00518409
5.32178e-08
0.00518408
7.54528e-08
0.00518407
1.05073e-07
0.00518405
1.4717e-07
0.00518402
2.01419e-07
0.00518398
2.79273e-07
0.00518392
3.70253e-07
0.00518381
5.45918e-07
0.0051836
8.58178e-07
0.00518303
2.61291e-06
0.00518165
8.24666e-06
0.0051766
3.02183e-05
6.15786e-05
0.00520399
0.00165593
0.00520551
0.000645911
0.00519609
0.000145771
0.00519665
9.24689e-06
0.0051968
-9.70229e-06
0.00519678
5.62562e-06
0.00519618
8.55607e-06
0.00519553
1.06237e-05
0.00519491
9.04063e-06
0.00519438
7.87949e-06
0.00519393
6.45547e-06
0.00519355
5.39402e-06
0.00519323
4.46274e-06
0.00519296
3.73549e-06
0.00519274
3.13698e-06
0.00519254
2.65576e-06
0.00519238
2.26221e-06
0.00519223
1.93661e-06
0.00519211
1.66512e-06
0.005192
1.4353e-06
0.0051919
1.24066e-06
0.00519181
1.07206e-06
0.00519174
9.28054e-07
0.00519167
8.0085e-07
0.00519161
6.9178e-07
0.00519156
5.96814e-07
0.00519152
5.13736e-07
0.00519148
4.40561e-07
0.00519144
3.78395e-07
0.00519141
3.21416e-07
0.00519139
2.75228e-07
0.00519136
2.31741e-07
0.00519134
1.96391e-07
0.00519133
1.65247e-07
0.00519131
1.37888e-07
0.0051913
1.14531e-07
0.00519129
9.61429e-08
0.00519128
7.81569e-08
0.00519128
6.6294e-08
0.00519127
5.24872e-08
0.00519126
4.46223e-08
0.00519126
3.64237e-08
0.00519126
3.02611e-08
0.00519125
2.49617e-08
0.00519125
2.14098e-08
0.00519125
1.6889e-08
0.00519125
1.57578e-08
0.00519125
1.13033e-08
0.00519124
1.09717e-08
0.00519124
8.17211e-09
0.00519124
7.53622e-09
0.00519124
5.73325e-09
0.00519124
5.21253e-09
0.00519124
3.42019e-09
0.00519124
3.94445e-09
0.00519124
1.72786e-09
0.00519124
2.56292e-09
0.00519124
7.40351e-10
0.00519124
1.29386e-09
0.00519124
6.5817e-11
0.00519124
5.17731e-10
0.00519124
-6.16262e-10
0.00519124
3.15701e-10
0.00519124
-9.02164e-10
0.00519124
2.45674e-10
0.00519124
-6.99563e-10
0.00519124
4.95903e-10
0.00519124
-2.41891e-10
0.00519124
6.37589e-10
0.00519124
-1.45306e-10
0.00519124
8.73267e-10
0.00519124
-8.04437e-11
0.00519124
6.8354e-10
0.00519124
-2.35545e-10
0.00519124
6.17607e-10
0.00519124
-4.0495e-11
0.00519124
7.98823e-10
0.00519124
4.39227e-10
0.00519124
1.9251e-09
0.00519124
2.34975e-09
0.00519124
4.53519e-09
0.00519124
6.09526e-09
0.00519124
9.90653e-09
0.00519124
1.38806e-08
0.00519123
2.06204e-08
0.00519123
2.88522e-08
0.00519123
4.15962e-08
0.00519122
5.80257e-08
0.00519122
8.22165e-08
0.00519121
1.14548e-07
0.00519119
1.60868e-07
0.00519117
2.21695e-07
0.00519114
3.12192e-07
0.00519109
4.24874e-07
0.00519098
6.55097e-07
0.00519078
1.05822e-06
0.00519026
3.13041e-06
0.00518913
9.37954e-06
0.00518513
3.42141e-05
6.96155e-05
0.0051854
0.00147053
0.00520056
0.000630748
0.00519586
0.000150472
0.00519663
8.47105e-06
0.00519665
-9.71836e-06
0.00519681
5.46324e-06
0.00519649
8.87638e-06
0.00519616
1.09528e-05
0.00519582
9.38311e-06
0.00519552
8.17527e-06
0.00519527
6.71315e-06
0.00519505
5.6115e-06
0.00519486
4.64676e-06
0.00519471
3.89099e-06
0.00519457
3.27012e-06
0.00519446
2.77077e-06
0.00519436
2.36227e-06
0.00519427
2.02445e-06
0.00519419
1.74278e-06
0.00519412
1.50426e-06
0.00519406
1.30196e-06
0.00519401
1.1266e-06
0.00519396
9.77032e-07
0.00519392
8.44488e-07
0.00519388
7.3046e-07
0.00519384
6.3122e-07
0.00519381
5.44383e-07
0.00519379
4.67677e-07
0.00519376
4.02331e-07
0.00519374
3.42457e-07
0.00519372
2.93844e-07
0.00519371
2.47944e-07
0.00519369
2.10341e-07
0.00519368
1.77344e-07
0.00519367
1.48333e-07
0.00519366
1.23337e-07
0.00519365
1.03529e-07
0.00519365
8.43017e-08
0.00519364
7.15738e-08
0.00519364
5.68306e-08
0.00519363
4.81874e-08
0.00519363
3.94587e-08
0.00519363
3.29202e-08
0.00519363
2.72402e-08
0.00519362
2.34417e-08
0.00519362
1.86285e-08
0.00519362
1.74336e-08
0.00519362
1.27587e-08
0.00519362
1.22231e-08
0.00519362
9.27166e-09
0.00519362
8.48273e-09
0.00519362
6.52797e-09
0.00519361
5.86243e-09
0.00519361
3.84397e-09
0.00519361
4.32936e-09
0.00519361
1.96011e-09
0.00519361
2.72048e-09
0.00519361
8.16432e-10
0.00519361
1.31238e-09
0.00519361
6.09765e-11
0.00519361
5.03198e-10
0.00519361
-7.19601e-10
0.00519361
2.52191e-10
0.00519361
-1.00476e-09
0.00519361
1.73344e-10
0.00519361
-7.95819e-10
0.00519361
4.30985e-10
0.00519361
-2.42343e-10
0.00519361
6.8969e-10
0.00519361
-1.32122e-10
0.00519361
9.4409e-10
0.00519361
5.39882e-12
0.00519361
8.00444e-10
0.00519361
-1.78932e-10
0.00519361
6.48456e-10
0.00519361
-2.57172e-12
0.00519361
8.46581e-10
0.00519361
4.28975e-10
0.00519361
1.92712e-09
0.00519361
2.40258e-09
0.00519361
4.72619e-09
0.00519361
6.38588e-09
0.00519361
1.03653e-08
0.00519361
1.46322e-08
0.00519361
2.17891e-08
0.00519361
3.04193e-08
0.00519361
4.3772e-08
0.0051936
6.11519e-08
0.0051936
8.6619e-08
0.00519359
1.2075e-07
0.00519358
1.70066e-07
0.00519357
2.35983e-07
0.00519354
3.37244e-07
0.0051935
4.69787e-07
0.0051934
7.50392e-07
0.00519323
1.2349e-06
0.00519279
3.56392e-06
0.00519194
1.02337e-05
0.00518908
3.70739e-05
7.50837e-05
0.00516895
0.00130158
0.0051949
0.000604803
0.00519434
0.000151024
0.00519522
7.59223e-06
0.00519512
-9.61182e-06
0.00519542
5.15586e-06
0.00519535
8.94472e-06
0.00519532
1.09914e-05
0.00519523
9.47185e-06
0.00519515
8.25181e-06
0.00519507
6.79019e-06
0.005195
5.67872e-06
0.00519494
4.70661e-06
0.00519489
3.94284e-06
0.00519485
3.31623e-06
0.0051948
2.81211e-06
0.00519477
2.3996e-06
0.00519473
2.05852e-06
0.0051947
1.77415e-06
0.00519467
1.53329e-06
0.00519465
1.32871e-06
0.00519462
1.15117e-06
0.0051946
1.00001e-06
0.00519458
8.65668e-07
0.00519456
7.4971e-07
0.00519454
6.48757e-07
0.00519452
5.60484e-07
0.00519451
4.82325e-07
0.0051945
4.15527e-07
0.00519448
3.54284e-07
0.00519447
3.04584e-07
0.00519446
2.57518e-07
0.00519446
2.18674e-07
0.00519445
1.84654e-07
0.00519444
1.54791e-07
0.00519444
1.28826e-07
0.00519443
1.08114e-07
0.00519443
8.80993e-08
0.00519443
7.48706e-08
0.00519442
5.95903e-08
0.00519442
5.04303e-08
0.00519442
4.13897e-08
0.00519442
3.4677e-08
0.00519441
2.87938e-08
0.00519441
2.48491e-08
0.00519441
1.98754e-08
0.00519441
1.86835e-08
0.00519441
1.39188e-08
0.00519441
1.32104e-08
0.00519441
1.01511e-08
0.00519441
9.23492e-09
0.00519441
7.14667e-09
0.00519441
6.38055e-09
0.00519441
4.15312e-09
0.00519441
4.60153e-09
0.00519441
2.12288e-09
0.0051944
2.81218e-09
0.0051944
8.65882e-10
0.0051944
1.30758e-09
0.00519441
3.72853e-11
0.00519441
4.83313e-10
0.00519441
-8.21052e-10
0.00519441
1.77922e-10
0.00519441
-1.11017e-09
0.00519441
9.2252e-11
0.00519441
-8.89285e-10
0.00519441
3.50297e-10
0.00519441
-2.60827e-10
0.00519441
7.32624e-10
0.00519441
-1.20742e-10
0.00519441
9.93148e-10
0.00519441
7.61384e-11
0.00519441
9.06016e-10
0.00519441
-1.20159e-10
0.00519441
6.61782e-10
0.00519441
8.78098e-12
0.00519441
8.65797e-10
0.00519441
3.90493e-10
0.00519441
1.86549e-09
0.00519441
2.35601e-09
0.00519441
4.7764e-09
0.00519441
6.49339e-09
0.00519441
1.05414e-08
0.00519441
1.49686e-08
0.0051944
2.23246e-08
0.0051944
3.11729e-08
0.0051944
4.48043e-08
0.0051944
6.26268e-08
0.0051944
8.87174e-08
0.0051944
1.23757e-07
0.00519439
1.74822e-07
0.00519438
2.44199e-07
0.00519437
3.5381e-07
0.00519433
5.02996e-07
0.00519426
8.2629e-07
0.00519412
1.3773e-06
0.00519379
3.89139e-06
0.00519323
1.07904e-05
0.00519153
3.87748e-05
7.80785e-05
0.00515492
0.00114666
0.0051895
0.000570223
0.00519259
0.000147934
0.00519349
6.6855e-06
0.00519326
-9.38033e-06
0.00519367
4.74515e-06
0.00519383
8.7866e-06
0.00519405
1.07692e-05
0.0051942
9.32937e-06
0.00519432
8.12818e-06
0.00519441
6.7012e-06
0.00519448
5.6074e-06
0.00519453
4.65159e-06
0.00519458
3.8986e-06
0.00519461
3.2814e-06
0.00519464
2.78473e-06
0.00519466
2.37821e-06
0.00519468
2.04211e-06
0.00519469
1.76184e-06
0.0051947
1.52447e-06
0.0051947
1.32263e-06
0.00519471
1.14711e-06
0.00519471
9.97991e-07
0.00519471
8.65156e-07
0.00519471
7.50138e-07
0.00519471
6.49884e-07
0.00519471
5.62332e-07
0.0051947
4.84686e-07
0.0051947
4.18121e-07
0.0051947
3.56972e-07
0.0051947
3.0746e-07
0.00519469
2.60431e-07
0.00519469
2.21354e-07
0.00519469
1.87114e-07
0.00519469
1.57164e-07
0.00519468
1.30905e-07
0.00519468
1.09827e-07
0.00519468
8.94793e-08
0.00519468
7.61116e-08
0.00519468
6.07048e-08
0.00519468
5.1315e-08
0.00519468
4.21667e-08
0.00519468
3.54818e-08
0.00519468
2.95585e-08
0.00519467
2.56288e-08
0.00519467
2.05914e-08
0.00519467
1.94651e-08
0.00519467
1.47297e-08
0.00519467
1.39055e-08
0.00519467
1.07815e-08
0.00519467
9.7663e-09
0.00519467
7.57913e-09
0.00519467
6.74082e-09
0.00519467
4.34443e-09
0.00519467
4.75948e-09
0.00519467
2.21301e-09
0.00519467
2.83854e-09
0.00519467
8.85278e-10
0.00519467
1.28055e-09
0.00519467
-8.6792e-12
0.00519467
4.53027e-10
0.00519467
-9.23464e-10
0.00519467
9.45994e-11
0.00519467
-1.22063e-09
0.00519467
5.24997e-12
0.00519467
-9.77028e-10
0.00519467
2.61664e-10
0.00519467
-2.975e-10
0.00519467
7.64526e-10
0.00519467
-1.08352e-10
0.00519467
1.02258e-09
0.00519467
1.25313e-10
0.00519467
9.9174e-10
0.00519467
-6.34347e-11
0.00519467
6.57805e-10
0.00519467
-1.13359e-11
0.00519467
8.511e-10
0.00519467
3.25271e-10
0.00519467
1.74944e-09
0.00519467
2.21786e-09
0.00519467
4.68083e-09
0.00519467
6.41278e-09
0.00519467
1.0458e-08
0.00519467
1.49069e-08
0.00519467
2.23075e-08
0.00519467
3.11498e-08
0.00519467
4.47342e-08
0.00519467
6.25201e-08
0.00519467
8.85961e-08
0.00519467
1.2368e-07
0.00519467
1.75237e-07
0.00519467
2.46323e-07
0.00519466
3.61402e-07
0.00519464
5.22906e-07
0.00519459
8.78403e-07
0.00519449
1.47719e-06
0.00519428
4.09814e-06
0.00519403
1.10409e-05
0.00519347
3.9335e-05
7.87404e-05
0.00514309
0.00100357
0.00518464
0.000528677
0.00519092
0.00014165
0.00519181
5.79841e-06
0.00519145
-9.01559e-06
0.00519192
4.26773e-06
0.00519228
8.4281e-06
0.00519273
1.03153e-05
0.00519309
8.97824e-06
0.00519339
7.82353e-06
0.00519363
6.46113e-06
0.00519383
5.4096e-06
0.00519399
4.4913e-06
0.00519412
3.76611e-06
0.00519423
3.17203e-06
0.00519432
2.69385e-06
0.00519439
2.30242e-06
0.00519446
1.97875e-06
0.00519451
1.70876e-06
0.00519456
1.48015e-06
0.00519459
1.28563e-06
0.00519462
1.11601e-06
0.00519465
9.72269e-07
0.00519467
8.4396e-07
0.00519469
7.32572e-07
0.0051947
6.35282e-07
0.00519471
5.50441e-07
0.00519472
4.75151e-07
0.00519473
4.10432e-07
0.00519474
3.50768e-07
0.00519474
3.02637e-07
0.00519475
2.56781e-07
0.00519475
2.18457e-07
0.00519475
1.84774e-07
0.00519475
1.5545e-07
0.00519476
1.29561e-07
0.00519476
1.08668e-07
0.00519476
8.84431e-08
0.00519476
7.52937e-08
0.00519476
6.01557e-08
0.00519476
5.08378e-08
0.00519476
4.17834e-08
0.00519476
3.53155e-08
0.00519476
2.95147e-08
0.00519476
2.57561e-08
0.00519476
2.0757e-08
0.00519476
1.97423e-08
0.00519476
1.51515e-08
0.00519476
1.42777e-08
0.00519476
1.11395e-08
0.00519476
1.00633e-08
0.00519476
7.80607e-09
0.00519476
6.95254e-09
0.00519476
4.42103e-09
0.00519476
4.80949e-09
0.00519476
2.2323e-09
0.00519476
2.80386e-09
0.00519476
8.71337e-10
0.00519476
1.23223e-09
0.00519476
-8.30833e-11
0.00519476
4.05581e-10
0.00519476
-1.03093e-09
0.00519476
-1.42157e-13
0.00519476
-1.33069e-09
0.00519476
-8.89895e-11
0.00519476
-1.05173e-09
0.00519476
1.69732e-10
0.00519476
-3.50575e-10
0.00519476
7.81131e-10
0.00519476
-9.61708e-11
0.00519476
1.03373e-09
0.00519476
1.45597e-10
0.00519476
1.05281e-09
0.00519476
-1.8373e-11
0.00519476
6.37803e-10
0.00519476
-6.5251e-11
0.00519476
7.99383e-10
0.00519476
2.32003e-10
0.00519476
1.58877e-09
0.00519476
1.99804e-09
0.00519476
4.45569e-09
0.00519476
6.16497e-09
0.00519476
1.01298e-08
0.00519476
1.4474e-08
0.00519476
2.17608e-08
0.00519476
3.03884e-08
0.00519476
4.36125e-08
0.00519476
6.09178e-08
0.00519477
8.63686e-08
0.00519477
1.20662e-07
0.00519477
1.7146e-07
0.00519478
2.4242e-07
0.00519478
3.59733e-07
0.00519477
5.28397e-07
0.00519475
9.03596e-07
0.0051947
1.52896e-06
0.00519462
4.17573e-06
0.00519467
1.09849e-05
0.00519521
3.88018e-05
7.72379e-05
0.00513319
0.000870383
0.00518037
0.000481494
0.00518944
0.000132576
0.00519028
4.95764e-06
0.00518978
-8.50953e-06
0.00519029
3.75413e-06
0.00519083
7.8949e-06
0.00519148
9.65754e-06
0.00519202
8.44084e-06
0.00519249
7.3569e-06
0.00519286
6.08512e-06
0.00519317
5.0976e-06
0.00519343
4.23565e-06
0.00519364
3.55347e-06
0.00519382
2.9948e-06
0.00519397
2.54498e-06
0.00519409
2.17676e-06
0.0051942
1.87227e-06
0.00519429
1.61812e-06
0.00519437
1.40299e-06
0.00519443
1.21993e-06
0.00519449
1.05975e-06
0.00519454
9.2438e-07
0.00519458
8.03331e-07
0.00519461
6.98057e-07
0.00519464
6.05847e-07
0.00519467
5.25539e-07
0.00519469
4.543e-07
0.0051947
3.92946e-07
0.00519472
3.36078e-07
0.00519473
2.90426e-07
0.00519474
2.4679e-07
0.00519475
2.10163e-07
0.00519476
1.77784e-07
0.00519476
1.49745e-07
0.00519477
1.24857e-07
0.00519477
1.047e-07
0.00519478
8.50564e-08
0.00519478
7.24702e-08
0.00519478
5.79686e-08
0.00519478
4.90262e-08
0.00519478
4.02705e-08
0.00519478
3.41885e-08
0.00519479
2.86608e-08
0.00519479
2.52177e-08
0.00519479
2.03651e-08
0.00519479
1.95018e-08
0.00519479
1.51547e-08
0.00519479
1.4307e-08
0.00519479
1.12137e-08
0.00519479
1.01218e-08
0.00519479
7.83115e-09
0.00519479
7.01749e-09
0.00519479
4.39162e-09
0.00519479
4.76052e-09
0.00519479
2.18665e-09
0.00519479
2.71035e-09
0.00519479
8.19915e-10
0.00519479
1.15808e-09
0.00519479
-1.82994e-10
0.00519479
3.33431e-10
0.00519479
-1.14499e-09
0.00519479
-1.01981e-10
0.00519479
-1.44143e-09
0.00519479
-1.86218e-10
0.00519479
-1.11544e-09
0.00519479
8.32328e-11
0.00519479
-4.16578e-10
0.00519479
7.78839e-10
0.00519479
-8.73091e-11
0.00519479
1.03195e-09
0.00519479
1.39554e-10
0.00519479
1.08076e-09
0.00519479
1.46054e-11
0.00519479
6.04988e-10
0.00519479
-1.47709e-10
0.00519479
7.09053e-10
0.00519479
1.12645e-10
0.00519479
1.39106e-09
0.00519479
1.70973e-09
0.00519479
4.11177e-09
0.00519479
5.75886e-09
0.00519479
9.57563e-09
0.00519479
1.3698e-08
0.00519479
2.07098e-08
0.00519479
2.89307e-08
0.0051948
4.15102e-08
0.0051948
5.79216e-08
0.0051948
8.21711e-08
0.00519481
1.14878e-07
0.00519482
1.63691e-07
0.00519483
2.32654e-07
0.00519484
3.48741e-07
0.00519485
5.18859e-07
0.00519485
9.0002e-07
0.00519485
1.5295e-06
0.0051949
4.12139e-06
0.00519526
1.06306e-05
0.00519682
3.72437e-05
7.37572e-05
0.00512493
0.000745451
0.00517667
0.000429752
0.00518817
0.000121083
0.00518895
4.17514e-06
0.0051883
-7.85767e-06
0.00518882
3.22837e-06
0.00518951
7.21167e-06
0.00519034
8.8223e-06
0.00519104
7.73917e-06
0.00519165
6.74711e-06
0.00519215
5.58837e-06
0.00519256
4.68386e-06
0.0051929
3.89473e-06
0.00519319
3.269e-06
0.00519343
2.75662e-06
0.00519363
2.34389e-06
0.0051938
2.00607e-06
0.00519394
1.72672e-06
0.00519407
1.49336e-06
0.00519417
1.29588e-06
0.00519427
1.12797e-06
0.00519435
9.80414e-07
0.00519441
8.56118e-07
0.00519447
7.44756e-07
0.00519452
6.47842e-07
0.00519457
5.62672e-07
0.0051946
4.8855e-07
0.00519463
4.22888e-07
0.00519466
3.66302e-07
0.00519468
3.13449e-07
0.0051947
2.71279e-07
0.00519472
2.30803e-07
0.00519473
1.96753e-07
0.00519474
1.66395e-07
0.00519475
1.40236e-07
0.00519476
1.16933e-07
0.00519477
9.80519e-08
0.00519477
7.94405e-08
0.00519478
6.77444e-08
0.00519478
5.42096e-08
0.00519478
4.59352e-08
0.00519479
3.7683e-08
0.00519479
3.21386e-08
0.00519479
2.70147e-08
0.00519479
2.40178e-08
0.00519479
1.94227e-08
0.00519479
1.87499e-08
0.00519479
1.47268e-08
0.00519479
1.39841e-08
0.0051948
1.1003e-08
0.0051948
9.94742e-09
0.0051948
7.66242e-09
0.0051948
6.93952e-09
0.0051948
4.26601e-09
0.0051948
4.62476e-09
0.0051948
2.08437e-09
0.0051948
2.56389e-09
0.0051948
7.29361e-10
0.0051948
1.0563e-09
0.0051948
-3.10005e-10
0.0051948
2.34526e-10
0.0051948
-1.26838e-09
0.0051948
-2.10333e-10
0.0051948
-1.54912e-09
0.0051948
-2.85688e-10
0.0051948
-1.16839e-09
0.0051948
5.62557e-12
0.0051948
-4.89883e-10
0.0051948
7.54712e-10
0.0051948
-8.62313e-11
0.0051948
1.01936e-09
0.0051948
1.09691e-10
0.0051948
1.07249e-09
0.0051948
3.03008e-11
0.0051948
5.61994e-10
0.0051948
-2.52666e-10
0.0051948
5.81026e-10
0.0051948
-3.4106e-11
0.0051948
1.16228e-09
0.0051948
1.36555e-09
0.0051948
3.66135e-09
0.0051948
5.20422e-09
0.0051948
8.81465e-09
0.0051948
1.26107e-08
0.0051948
1.91928e-08
0.00519481
2.68273e-08
0.00519481