/*--------------------------------*- C++ -*----------------------------------*\
| =========                 |                                                 |
| \\      /  F ield         | OpenFOAM: The Open Source CFD Toolbox           |
|  \\    /   O peration     | Version:  2.3.0                                 |
|   \\  /    A nd           | Web:      www.OpenFOAM.org                      |
|    \\/     M anipulation  |                                                 |
\*---------------------------------------------------------------------------*/
FoamFile
{
    version     2.0;
    format      ascii;
    class       volVectorField;
    location    "2";
    object      U;
}
// * * * * * * * * * * * * * * * * * * * * * * * * * * * * * * * * * * * * * //

dimensions      [0 1 -1 0 0 0 0];

internalField   nonuniform List<vector> 
4000
(
(0.537552 0.0563964 0)
(0.55218 0.00359618 0)
(0.517062 -0.00176453 0)
(0.522885 -0.00200107 0)
(0.521069 -0.00213059 0)
(0.522 -0.00203749 0)
(0.521391 -0.00204461 0)
(0.521239 -0.00203475 0)
(0.520895 -0.00204423 0)
(0.520686 -0.00204821 0)
(0.520479 -0.00205399 0)
(0.520324 -0.00205771 0)
(0.52019 -0.00206111 0)
(0.520081 -0.00206367 0)
(0.519988 -0.00206575 0)
(0.519911 -0.00206738 0)
(0.519846 -0.00206869 0)
(0.519791 -0.00206977 0)
(0.519744 -0.00207064 0)
(0.519704 -0.00207135 0)
(0.519669 -0.00207193 0)
(0.51964 -0.00207243 0)
(0.519615 -0.00207284 0)
(0.519593 -0.0020732 0)
(0.519575 -0.00207349 0)
(0.519559 -0.00207374 0)
(0.519546 -0.00207395 0)
(0.519535 -0.00207414 0)
(0.519526 -0.00207429 0)
(0.519518 -0.00207443 0)
(0.519511 -0.00207453 0)
(0.519506 -0.00207463 0)
(0.519501 -0.0020747 0)
(0.519497 -0.00207477 0)
(0.519494 -0.00207483 0)
(0.519492 -0.00207487 0)
(0.519489 -0.00207491 0)
(0.519488 -0.00207495 0)
(0.519486 -0.00207497 0)
(0.519485 -0.00207501 0)
(0.519484 -0.00207501 0)
(0.519484 -0.00207503 0)
(0.519483 -0.00207504 0)
(0.519482 -0.00207505 0)
(0.519482 -0.00207505 0)
(0.519482 -0.00207507 0)
(0.519481 -0.00207506 0)
(0.519481 -0.00207508 0)
(0.519481 -0.00207507 0)
(0.519481 -0.00207508 0)
(0.519481 -0.00207508 0)
(0.519481 -0.00207509 0)
(0.519481 -0.00207509 0)
(0.519481 -0.00207509 0)
(0.519481 -0.00207509 0)
(0.51948 -0.00207509 0)
(0.51948 -0.00207508 0)
(0.51948 -0.00207509 0)
(0.51948 -0.00207508 0)
(0.51948 -0.00207509 0)
(0.51948 -0.00207508 0)
(0.51948 -0.00207509 0)
(0.51948 -0.00207509 0)
(0.51948 -0.00207509 0)
(0.51948 -0.00207509 0)
(0.51948 -0.00207509 0)
(0.51948 -0.00207509 0)
(0.51948 -0.00207509 0)
(0.51948 -0.00207509 0)
(0.51948 -0.00207509 0)
(0.51948 -0.00207509 0)
(0.51948 -0.00207509 0)
(0.51948 -0.00207509 0)
(0.51948 -0.00207509 0)
(0.51948 -0.00207509 0)
(0.51948 -0.00207509 0)
(0.51948 -0.00207509 0)
(0.51948 -0.00207509 0)
(0.51948 -0.00207508 0)
(0.51948 -0.00207508 0)
(0.51948 -0.00207507 0)
(0.51948 -0.00207507 0)
(0.51948 -0.00207506 0)
(0.519479 -0.00207505 0)
(0.519479 -0.00207503 0)
(0.519478 -0.00207501 0)
(0.519478 -0.00207497 0)
(0.519476 -0.00207492 0)
(0.519475 -0.00207485 0)
(0.519472 -0.00207476 0)
(0.519469 -0.00207464 0)
(0.519464 -0.0020745 0)
(0.519458 -0.00207436 0)
(0.51945 -0.00207435 0)
(0.519443 -0.00207464 0)
(0.519436 -0.00207528 0)
(0.519442 -0.00207439 0)
(0.51936 -0.00206119 0)
(0.519228 -0.00202118 0)
(0.518638 -0.0021516 0)
(0.864908 0.128453 0)
(0.911564 0.0160027 0)
(0.861952 0.000986223 0)
(0.871339 -7.05607e-05 0)
(0.867949 -0.000504865 0)
(0.869534 -0.000190052 0)
(0.868573 -0.000201421 0)
(0.868402 -0.000163693 0)
(0.867888 -0.000193451 0)
(0.86759 -0.000206366 0)
(0.867286 -0.000225916 0)
(0.867059 -0.000238891 0)
(0.866861 -0.000251019 0)
(0.8667 -0.000260306 0)
(0.866564 -0.000267509 0)
(0.86645 -0.00027326 0)
(0.866354 -0.000277972 0)
(0.866272 -0.000281893 0)
(0.866202 -0.000285154 0)
(0.866142 -0.000287899 0)
(0.866091 -0.000290203 0)
(0.866047 -0.000292216 0)
(0.866009 -0.000293909 0)
(0.865977 -0.000295373 0)
(0.865949 -0.000296613 0)
(0.865925 -0.000297708 0)
(0.865905 -0.00029864 0)
(0.865888 -0.000299445 0)
(0.865873 -0.00030011 0)
(0.865861 -0.000300742 0)
(0.86585 -0.000301217 0)
(0.865842 -0.000301672 0)
(0.865835 -0.000302022 0)
(0.865828 -0.000302344 0)
(0.865823 -0.000302605 0)
(0.865819 -0.000302824 0)
(0.865816 -0.000302988 0)
(0.865813 -0.000303176 0)
(0.865811 -0.000303267 0)
(0.865809 -0.000303404 0)
(0.865807 -0.000303457 0)
(0.865806 -0.000303547 0)
(0.865805 -0.000303599 0)
(0.865804 -0.000303648 0)
(0.865803 -0.000303674 0)
(0.865803 -0.00030373 0)
(0.865802 -0.000303726 0)
(0.865802 -0.00030378 0)
(0.865802 -0.000303763 0)
(0.865801 -0.000303803 0)
(0.865801 -0.000303796 0)
(0.865801 -0.000303817 0)
(0.865801 -0.000303806 0)
(0.865801 -0.000303829 0)
(0.865801 -0.00030381 0)
(0.865801 -0.000303839 0)
(0.865801 -0.000303813 0)
(0.865801 -0.00030384 0)
(0.865801 -0.000303822 0)
(0.865801 -0.000303844 0)
(0.8658 -0.000303826 0)
(0.8658 -0.000303847 0)
(0.8658 -0.00030383 0)
(0.8658 -0.000303852 0)
(0.8658 -0.00030383 0)
(0.8658 -0.00030385 0)
(0.8658 -0.00030383 0)
(0.865801 -0.000303851 0)
(0.865801 -0.000303831 0)
(0.865801 -0.000303849 0)
(0.8658 -0.000303832 0)
(0.8658 -0.000303852 0)
(0.8658 -0.000303835 0)
(0.8658 -0.000303849 0)
(0.8658 -0.000303831 0)
(0.8658 -0.000303847 0)
(0.8658 -0.000303827 0)
(0.8658 -0.000303836 0)
(0.8658 -0.000303813 0)
(0.8658 -0.000303817 0)
(0.8658 -0.000303789 0)
(0.8658 -0.000303778 0)
(0.8658 -0.000303735 0)
(0.865799 -0.000303706 0)
(0.865799 -0.000303631 0)
(0.865798 -0.000303551 0)
(0.865796 -0.000303414 0)
(0.865795 -0.000303247 0)
(0.865792 -0.000302987 0)
(0.865788 -0.000302653 0)
(0.865783 -0.000302189 0)
(0.865776 -0.000301647 0)
(0.865767 -0.00030102 0)
(0.865754 -0.000300677 0)
(0.865742 -0.000300891 0)
(0.865724 -0.000301461 0)
(0.865718 -0.000293343 0)
(0.865546 -0.000239561 0)
(0.865253 -7.34358e-05 0)
(0.863186 -0.000219184 0)
(0.96032 0.135904 0)
(1.02534 0.0244306 0)
(0.976312 0.00334328 0)
(0.987397 0.000825623 0)
(0.983084 0.000103788 0)
(0.984983 0.000608739 0)
(0.983907 0.000614394 0)
(0.983811 0.00067801 0)
(0.983286 0.000629749 0)
(0.983008 0.000605618 0)
(0.982706 0.000571124 0)
(0.982486 0.000547463 0)
(0.982292 0.000525781 0)
(0.982135 0.000509073 0)
(0.982002 0.000495794 0)
(0.981891 0.000485181 0)
(0.981796 0.000476484 0)
(0.981716 0.00046925 0)
(0.981647 0.000463222 0)
(0.981588 0.000458133 0)
(0.981537 0.000453852 0)
(0.981493 0.000450125 0)
(0.981455 0.00044696 0)
(0.981423 0.000444207 0)
(0.981395 0.000441878 0)
(0.981371 0.000439836 0)
(0.98135 0.000438077 0)
(0.981333 0.000436552 0)
(0.981318 0.000435267 0)
(0.981305 0.00043407 0)
(0.981294 0.000433139 0)
(0.981285 0.000432263 0)
(0.981277 0.000431581 0)
(0.981271 0.000430959 0)
(0.981266 0.000430437 0)
(0.981261 0.00043 0)
(0.981257 0.000429671 0)
(0.981254 0.000429316 0)
(0.981252 0.000429112 0)
(0.98125 0.000428845 0)
(0.981248 0.000428726 0)
(0.981247 0.000428559 0)
(0.981246 0.000428452 0)
(0.981245 0.000428356 0)
(0.981244 0.000428302 0)
(0.981243 0.000428205 0)
(0.981243 0.000428199 0)
(0.981242 0.000428102 0)
(0.981242 0.000428122 0)
(0.981241 0.000428054 0)
(0.981241 0.000428057 0)
(0.981241 0.000428017 0)
(0.981241 0.000428026 0)
(0.981241 0.00042799 0)
(0.981241 0.000428016 0)
(0.981241 0.000427968 0)
(0.981241 0.000428009 0)
(0.98124 0.000427964 0)
(0.98124 0.000427992 0)
(0.98124 0.000427955 0)
(0.98124 0.000427978 0)
(0.98124 0.000427948 0)
(0.98124 0.000427973 0)
(0.98124 0.000427937 0)
(0.98124 0.000427971 0)
(0.98124 0.000427941 0)
(0.98124 0.000427974 0)
(0.98124 0.000427941 0)
(0.98124 0.00042797 0)
(0.98124 0.000427945 0)
(0.98124 0.000427972 0)
(0.98124 0.000427941 0)
(0.98124 0.000427966 0)
(0.98124 0.000427943 0)
(0.98124 0.000427971 0)
(0.98124 0.000427946 0)
(0.98124 0.000427975 0)
(0.98124 0.000427965 0)
(0.98124 0.000428004 0)
(0.98124 0.000428002 0)
(0.98124 0.000428051 0)
(0.98124 0.000428077 0)
(0.98124 0.000428158 0)
(0.981239 0.000428223 0)
(0.981238 0.00042836 0)
(0.981238 0.00042852 0)
(0.981236 0.00042878 0)
(0.981234 0.000429106 0)
(0.981232 0.0004296 0)
(0.981228 0.000430245 0)
(0.981223 0.000431145 0)
(0.981216 0.000432223 0)
(0.981206 0.000433541 0)
(0.981193 0.000434522 0)
(0.981179 0.00043519 0)
(0.981153 0.000436335 0)
(0.981132 0.000458771 0)
(0.980909 0.00056906 0)
(0.980543 0.000943102 0)
(0.977595 0.00117802 0)
(0.984975 0.123291 0)
(1.0595 0.028658 0)
(1.01374 0.00469227 0)
(1.0259 0.00070236 0)
(1.02098 -0.000183858 0)
(1.02309 0.000443836 0)
(1.02198 0.000481855 0)
(1.02198 0.000563679 0)
(1.0215 0.000501774 0)
(1.02127 0.000466347 0)
(1.021 0.000418345 0)
(1.02082 0.000384215 0)
(1.02065 0.000353235 0)
(1.02051 0.000328979 0)
(1.0204 0.000309861 0)
(1.0203 0.000294846 0)
(1.02022 0.00028257 0)
(1.02015 0.000272378 0)
(1.02009 0.000263879 0)
(1.02003 0.000256696 0)
(1.01999 0.000250637 0)
(1.01995 0.000245372 0)
(1.01992 0.000240883 0)
(1.01989 0.000236965 0)
(1.01986 0.000233633 0)
(1.01984 0.000230715 0)
(1.01982 0.000228181 0)
(1.01981 0.000225975 0)
(1.01979 0.000224126 0)
(1.01978 0.000222417 0)
(1.01977 0.000221065 0)
(1.01976 0.000219797 0)
(1.01976 0.000218797 0)
(1.01975 0.000217896 0)
(1.01974 0.000217125 0)
(1.01974 0.000216484 0)
(1.01974 0.000215992 0)
(1.01973 0.000215483 0)
(1.01973 0.000215173 0)
(1.01973 0.000214788 0)
(1.01973 0.000214602 0)
(1.01973 0.000214365 0)
(1.01973 0.000214201 0)
(1.01972 0.000214059 0)
(1.01972 0.000213969 0)
(1.01972 0.000213834 0)
(1.01972 0.000213813 0)
(1.01972 0.000213678 0)
(1.01972 0.000213694 0)
(1.01972 0.000213604 0)
(1.01972 0.000213601 0)
(1.01972 0.000213549 0)
(1.01972 0.000213553 0)
(1.01972 0.000213505 0)
(1.01972 0.000213534 0)
(1.01972 0.000213467 0)
(1.01972 0.000213513 0)
(1.01972 0.000213453 0)
(1.01972 0.000213484 0)
(1.01972 0.000213438 0)
(1.01972 0.000213463 0)
(1.01972 0.000213426 0)
(1.01972 0.000213458 0)
(1.01972 0.000213413 0)
(1.01972 0.000213456 0)
(1.01972 0.00021342 0)
(1.01972 0.000213462 0)
(1.01972 0.000213424 0)
(1.01972 0.000213457 0)
(1.01972 0.000213428 0)
(1.01972 0.000213461 0)
(1.01972 0.000213422 0)
(1.01972 0.000213452 0)
(1.01972 0.000213423 0)
(1.01972 0.000213457 0)
(1.01972 0.000213429 0)
(1.01972 0.000213463 0)
(1.01972 0.000213453 0)
(1.01972 0.000213505 0)
(1.01972 0.000213509 0)
(1.01972 0.000213576 0)
(1.01972 0.000213618 0)
(1.01972 0.000213734 0)
(1.01972 0.000213836 0)
(1.01972 0.000214034 0)
(1.01972 0.000214271 0)
(1.01972 0.000214646 0)
(1.01971 0.000215123 0)
(1.01971 0.000215839 0)
(1.01971 0.000216782 0)
(1.0197 0.000218102 0)
(1.0197 0.00021972 0)
(1.01969 0.000221797 0)
(1.01968 0.000223652 0)
(1.01966 0.000226067 0)
(1.01963 0.000230481 0)
(1.0196 0.000271499 0)
(1.01935 0.00044409 0)
(1.01899 0.00104964 0)
(1.01589 0.00176927 0)
(0.988581 0.109968 0)
(1.06796 0.0309668 0)
(1.02559 0.005699 0)
(1.0385 0.000550028 0)
(1.03316 -0.000405115 0)
(1.03544 0.00029905 0)
(1.03431 0.000370984 0)
(1.03442 0.000464033 0)
(1.03399 0.000392919 0)
(1.03382 0.00034815 0)
(1.0336 0.000289857 0)
(1.03345 0.000247556 0)
(1.03331 0.00020959 0)
(1.0332 0.00017979 0)
(1.03311 0.000156115 0)
(1.03303 0.000137424 0)
(1.03296 0.000122137 0)
(1.03291 0.000109442 0)
(1.03286 9.88369e-05 0)
(1.03281 8.98497e-05 0)
(1.03278 8.22373e-05 0)
(1.03275 7.56049e-05 0)
(1.03272 6.99093e-05 0)
(1.03269 6.4888e-05 0)
(1.03267 6.05696e-05 0)
(1.03265 5.67544e-05 0)
(1.03264 5.33796e-05 0)
(1.03262 5.04024e-05 0)
(1.03261 4.80669e-05 0)
(1.0326 4.59248e-05 0)
(1.03259 4.42131e-05 0)
(1.03259 4.26091e-05 0)
(1.03258 4.1332e-05 0)
(1.03257 4.01898e-05 0)
(1.03257 3.92011e-05 0)
(1.03257 3.83749e-05 0)
(1.03256 3.77354e-05 0)
(1.03256 3.70877e-05 0)
(1.03256 3.6679e-05 0)
(1.03256 3.6186e-05 0)
(1.03255 3.59328e-05 0)
(1.03255 3.5633e-05 0)
(1.03255 3.54164e-05 0)
(1.03255 3.52314e-05 0)
(1.03255 3.51122e-05 0)
(1.03255 3.49443e-05 0)
(1.03255 3.49102e-05 0)
(1.03255 3.47428e-05 0)
(1.03255 3.47518e-05 0)
(1.03255 3.46426e-05 0)
(1.03255 3.46319e-05 0)
(1.03255 3.4566e-05 0)
(1.03255 3.45618e-05 0)
(1.03255 3.45019e-05 0)
(1.03255 3.4531e-05 0)
(1.03255 3.4449e-05 0)
(1.03255 3.44968e-05 0)
(1.03255 3.44256e-05 0)
(1.03255 3.44577e-05 0)
(1.03255 3.44044e-05 0)
(1.03255 3.44295e-05 0)
(1.03255 3.43858e-05 0)
(1.03255 3.44236e-05 0)
(1.03255 3.43718e-05 0)
(1.03255 3.44211e-05 0)
(1.03255 3.43803e-05 0)
(1.03255 3.44294e-05 0)
(1.03255 3.43887e-05 0)
(1.03255 3.44262e-05 0)
(1.03255 3.43933e-05 0)
(1.03255 3.4433e-05 0)
(1.03255 3.43888e-05 0)
(1.03255 3.44226e-05 0)
(1.03255 3.4387e-05 0)
(1.03255 3.44265e-05 0)
(1.03255 3.43945e-05 0)
(1.03255 3.4433e-05 0)
(1.03255 3.44208e-05 0)
(1.03255 3.44832e-05 0)
(1.03255 3.44927e-05 0)
(1.03255 3.45755e-05 0)
(1.03255 3.46311e-05 0)
(1.03255 3.47763e-05 0)
(1.03255 3.49125e-05 0)
(1.03255 3.51619e-05 0)
(1.03254 3.54655e-05 0)
(1.03254 3.59419e-05 0)
(1.03254 3.65487e-05 0)
(1.03254 3.745e-05 0)
(1.03254 3.86453e-05 0)
(1.03253 4.03267e-05 0)
(1.03253 4.24301e-05 0)
(1.03252 4.52608e-05 0)
(1.03251 4.81498e-05 0)
(1.03249 5.31742e-05 0)
(1.03246 6.22845e-05 0)
(1.03242 0.000123547 0)
(1.03218 0.000349201 0)
(1.03186 0.00116819 0)
(1.02902 0.00229701 0)
(0.986404 0.0982876 0)
(1.06823 0.0321942 0)
(1.02897 0.00652554 0)
(1.04243 0.000505484 0)
(1.0368 -0.000469402 0)
(1.03922 0.000278989 0)
(1.03808 0.00038238 0)
(1.03829 0.00048122 0)
(1.03792 0.000405133 0)
(1.03782 0.000353869 0)
(1.03764 0.000289246 0)
(1.03753 0.000241995 0)
(1.03742 0.000200315 0)
(1.03734 0.000167915 0)
(1.03727 0.000141181 0)
(1.03721 0.0001197 0)
(1.03715 0.000102118 0)
(1.03711 8.75355e-05 0)
(1.03707 7.53533e-05 0)
(1.03704 6.5026e-05 0)
(1.03701 5.62699e-05 0)
(1.03698 4.86524e-05 0)
(1.03696 4.211e-05 0)
(1.03694 3.63254e-05 0)
(1.03693 3.13418e-05 0)
(1.03691 2.6952e-05 0)
(1.0369 2.30654e-05 0)
(1.03689 1.96291e-05 0)
(1.03688 1.69031e-05 0)
(1.03687 1.44078e-05 0)
(1.03686 1.23976e-05 0)
(1.03686 1.05108e-05 0)
(1.03685 8.99314e-06 0)
(1.03685 7.64488e-06 0)
(1.03684 6.46498e-06 0)
(1.03684 5.47015e-06 0)
(1.03684 4.69094e-06 0)
(1.03683 3.91321e-06 0)
(1.03683 3.40595e-06 0)
(1.03683 2.80185e-06 0)
(1.03683 2.46917e-06 0)
(1.03683 2.0994e-06 0)
(1.03683 1.81696e-06 0)
(1.03683 1.59437e-06 0)
(1.03683 1.44791e-06 0)
(1.03683 1.25274e-06 0)
(1.03682 1.20713e-06 0)
(1.03682 1.01278e-06 0)
(1.03682 1.01211e-06 0)
(1.03682 8.88989e-07 0)
(1.03682 8.69914e-07 0)
(1.03682 7.93896e-07 0)
(1.03682 7.80452e-07 0)
(1.03682 7.08678e-07 0)
(1.03682 7.36813e-07 0)
(1.03682 6.41336e-07 0)
(1.03682 6.87294e-07 0)
(1.03682 6.06488e-07 0)
(1.03682 6.37339e-07 0)
(1.03682 5.80022e-07 0)
(1.03682 6.03886e-07 0)
(1.03682 5.5505e-07 0)
(1.03682 5.97064e-07 0)
(1.03682 5.40925e-07 0)
(1.03682 5.94411e-07 0)
(1.03682 5.50561e-07 0)
(1.03682 6.0494e-07 0)
(1.03682 5.64725e-07 0)
(1.03682 6.04602e-07 0)
(1.03682 5.69001e-07 0)
(1.03682 6.13566e-07 0)
(1.03682 5.66835e-07 0)
(1.03682 6.02599e-07 0)
(1.03682 5.62683e-07 0)
(1.03682 6.04547e-07 0)
(1.03682 5.71847e-07 0)
(1.03682 6.122e-07 0)
(1.03682 5.98239e-07 0)
(1.03682 6.67337e-07 0)
(1.03682 6.82437e-07 0)
(1.03682 7.77506e-07 0)
(1.03682 8.44235e-07 0)
(1.03682 1.01195e-06 0)
(1.03682 1.17768e-06 0)
(1.03682 1.46886e-06 0)
(1.03682 1.82686e-06 0)
(1.03682 2.41557e-06 0)
(1.03682 3.15944e-06 0)
(1.03682 4.23683e-06 0)
(1.03682 5.65674e-06 0)
(1.03681 7.65468e-06 0)
(1.03681 1.0196e-05 0)
(1.0368 1.37604e-05 0)
(1.03679 1.77639e-05 0)
(1.03678 2.54783e-05 0)
(1.03674 3.92917e-05 0)
(1.0367 0.000119289 0)
(1.03647 0.000383874 0)
(1.03621 0.00139853 0)
(1.03382 0.00284681 0)
(0.983106 0.0876809 0)
(1.06611 0.032508 0)
(1.02959 0.00711835 0)
(1.04347 0.000482671 0)
(1.03762 -0.000481828 0)
(1.04015 0.000284771 0)
(1.03902 0.000418084 0)
(1.03933 0.000520664 0)
(1.039 0.000441859 0)
(1.03896 0.000385533 0)
(1.03883 0.000315957 0)
(1.03876 0.000264441 0)
(1.03868 0.000219234 0)
(1.03862 0.000184029 0)
(1.03857 0.000154927 0)
(1.03853 0.000131499 0)
(1.03849 0.000112337 0)
(1.03846 9.64752e-05 0)
(1.03844 8.32464e-05 0)
(1.03841 7.205e-05 0)
(1.03839 6.25711e-05 0)
(1.03837 5.43569e-05 0)
(1.03836 4.73367e-05 0)
(1.03834 4.11442e-05 0)
(1.03833 3.58369e-05 0)
(1.03832 3.12106e-05 0)
(1.03831 2.71617e-05 0)
(1.0383 2.35981e-05 0)
(1.03829 2.05828e-05 0)
(1.03829 1.78161e-05 0)
(1.03828 1.55744e-05 0)
(1.03827 1.34644e-05 0)
(1.03827 1.17505e-05 0)
(1.03827 1.02344e-05 0)
(1.03826 8.89766e-06 0)
(1.03826 7.75722e-06 0)
(1.03826 6.85319e-06 0)
(1.03826 5.95782e-06 0)
(1.03826 5.35851e-06 0)
(1.03825 4.64869e-06 0)
(1.03825 4.23394e-06 0)
(1.03825 3.80335e-06 0)
(1.03825 3.48361e-06 0)
(1.03825 3.22896e-06 0)
(1.03825 3.05822e-06 0)
(1.03825 2.84054e-06 0)
(1.03825 2.78672e-06 0)
(1.03825 2.57185e-06 0)
(1.03825 2.56057e-06 0)
(1.03825 2.42628e-06 0)
(1.03825 2.39877e-06 0)
(1.03825 2.31372e-06 0)
(1.03825 2.29167e-06 0)
(1.03825 2.20775e-06 0)
(1.03825 2.2345e-06 0)
(1.03825 2.12792e-06 0)
(1.03825 2.17094e-06 0)
(1.03825 2.0828e-06 0)
(1.03825 2.11149e-06 0)
(1.03825 2.05151e-06 0)
(1.03825 2.07441e-06 0)
(1.03825 2.0204e-06 0)
(1.03825 2.06575e-06 0)
(1.03825 2.00627e-06 0)
(1.03825 2.06254e-06 0)
(1.03825 2.01639e-06 0)
(1.03825 2.07452e-06 0)
(1.03825 2.03629e-06 0)
(1.03825 2.07872e-06 0)
(1.03825 2.04067e-06 0)
(1.03825 2.08964e-06 0)
(1.03825 2.04202e-06 0)
(1.03825 2.07938e-06 0)
(1.03825 2.03553e-06 0)
(1.03825 2.07817e-06 0)
(1.03825 2.04537e-06 0)
(1.03825 2.08688e-06 0)
(1.03825 2.07038e-06 0)
(1.03825 2.14358e-06 0)
(1.03825 2.16326e-06 0)
(1.03825 2.26841e-06 0)
(1.03825 2.34326e-06 0)
(1.03825 2.52721e-06 0)
(1.03825 2.71657e-06 0)
(1.03825 3.04081e-06 0)
(1.03825 3.44183e-06 0)
(1.03825 4.10225e-06 0)
(1.03824 4.97863e-06 0)
(1.03824 6.2148e-06 0)
(1.03824 7.82682e-06 0)
(1.03824 1.00925e-05 0)
(1.03824 1.30167e-05 0)
(1.03823 1.7269e-05 0)
(1.03822 2.23918e-05 0)
(1.03821 3.26043e-05 0)
(1.03818 5.0631e-05 0)
(1.03814 0.00014703 0)
(1.03794 0.000446113 0)
(1.03774 0.00162568 0)
(1.03587 0.0033129 0)
(0.980018 0.0779739 0)
(1.0635 0.0320555 0)
(1.02937 0.00746383 0)
(1.04356 0.000447821 0)
(1.03755 -0.000485564 0)
(1.04016 0.000280772 0)
(1.03904 0.000440654 0)
(1.03943 0.000544811 0)
(1.03916 0.000465577 0)
(1.03917 0.000405951 0)
(1.03908 0.000333352 0)
(1.03904 0.000278931 0)
(1.039 0.000231248 0)
(1.03896 0.000193959 0)
(1.03893 0.000163281 0)
(1.03891 0.000138607 0)
(1.03888 0.000118425 0)
(1.03887 0.000101731 0)
(1.03885 8.78126e-05 0)
(1.03883 7.60311e-05 0)
(1.03882 6.60473e-05 0)
(1.03881 5.73983e-05 0)
(1.0388 5.00184e-05 0)
(1.03879 4.3493e-05 0)
(1.03878 3.78899e-05 0)
(1.03877 3.30163e-05 0)
(1.03877 2.87563e-05 0)
(1.03876 2.49994e-05 0)
(1.03875 2.17841e-05 0)
(1.03875 1.88342e-05 0)
(1.03875 1.64379e-05 0)
(1.03874 1.4177e-05 0)
(1.03874 1.23267e-05 0)
(1.03874 1.06979e-05 0)
(1.03874 9.26024e-06 0)
(1.03873 8.02308e-06 0)
(1.03873 7.03808e-06 0)
(1.03873 6.07258e-06 0)
(1.03873 5.42403e-06 0)
(1.03873 4.66303e-06 0)
(1.03873 4.20783e-06 0)
(1.03873 3.75086e-06 0)
(1.03873 3.4131e-06 0)
(1.03873 3.12366e-06 0)
(1.03873 2.91939e-06 0)
(1.03872 2.68257e-06 0)
(1.03872 2.62364e-06 0)
(1.03872 2.39411e-06 0)
(1.03872 2.37193e-06 0)
(1.03872 2.22835e-06 0)
(1.03872 2.19245e-06 0)
(1.03872 2.09883e-06 0)
(1.03872 2.06824e-06 0)
(1.03872 1.97257e-06 0)
(1.03872 1.99758e-06 0)
(1.03872 1.88228e-06 0)
(1.03872 1.92164e-06 0)
(1.03872 1.82833e-06 0)
(1.03872 1.85433e-06 0)
(1.03872 1.79268e-06 0)
(1.03872 1.815e-06 0)
(1.03872 1.75615e-06 0)
(1.03872 1.80402e-06 0)
(1.03872 1.74207e-06 0)
(1.03872 1.80029e-06 0)
(1.03872 1.75252e-06 0)
(1.03872 1.81307e-06 0)
(1.03872 1.77778e-06 0)
(1.03872 1.82278e-06 0)
(1.03872 1.78257e-06 0)
(1.03872 1.83496e-06 0)
(1.03872 1.78766e-06 0)
(1.03872 1.82653e-06 0)
(1.03872 1.77932e-06 0)
(1.03872 1.82136e-06 0)
(1.03872 1.78885e-06 0)
(1.03872 1.83103e-06 0)
(1.03872 1.81163e-06 0)
(1.03872 1.88649e-06 0)
(1.03872 1.90941e-06 0)
(1.03872 2.02252e-06 0)
(1.03872 2.10375e-06 0)
(1.03872 2.29982e-06 0)
(1.03872 2.50772e-06 0)
(1.03872 2.85762e-06 0)
(1.03872 3.30814e-06 0)
(1.03872 4.00234e-06 0)
(1.03872 4.92886e-06 0)
(1.03872 6.24027e-06 0)
(1.03872 7.9607e-06 0)
(1.03872 1.0404e-05 0)
(1.03872 1.36195e-05 0)
(1.03871 1.84625e-05 0)
(1.0387 2.464e-05 0)
(1.03869 3.74717e-05 0)
(1.03867 5.97919e-05 0)
(1.03863 0.000170596 0)
(1.03847 0.00049601 0)
(1.03834 0.00179846 0)
(1.03701 0.00365051 0)
(0.977431 0.0691318 0)
(1.06097 0.030998 0)
(1.02893 0.007587 0)
(1.04334 0.00040412 0)
(1.03721 -0.000484351 0)
(1.03989 0.00026736 0)
(1.03878 0.000448932 0)
(1.03924 0.000552543 0)
(1.03901 0.000474963 0)
(1.03908 0.000413882 0)
(1.03902 0.000340355 0)
(1.03902 0.000284674 0)
(1.039 0.000235947 0)
(1.03899 0.000197715 0)
(1.03898 0.000166335 0)
(1.03897 0.000141098 0)
(1.03896 0.000120449 0)
(1.03895 0.000103374 0)
(1.03895 8.91364e-05 0)
(1.03894 7.70798e-05 0)
(1.03893 6.68472e-05 0)
(1.03893 5.79728e-05 0)
(1.03892 5.04095e-05 0)
(1.03892 4.36998e-05 0)
(1.03891 3.79174e-05 0)
(1.03891 3.28848e-05 0)
(1.03891 2.84843e-05 0)
(1.0389 2.45925e-05 0)
(1.0389 2.12662e-05 0)
(1.0389 1.82163e-05 0)
(1.0389 1.57392e-05 0)
(1.03889 1.33971e-05 0)
(1.03889 1.14689e-05 0)
(1.03889 9.77822e-06 0)
(1.03889 8.29134e-06 0)
(1.03889 7.00323e-06 0)
(1.03889 5.97706e-06 0)
(1.03889 4.98177e-06 0)
(1.03889 4.32021e-06 0)
(1.03888 3.55303e-06 0)
(1.03888 3.0927e-06 0)
(1.03888 2.63305e-06 0)
(1.03888 2.28327e-06 0)
(1.03888 1.97762e-06 0)
(1.03888 1.76204e-06 0)
(1.03888 1.51206e-06 0)
(1.03888 1.45048e-06 0)
(1.03888 1.21019e-06 0)
(1.03888 1.17657e-06 0)
(1.03888 1.02274e-06 0)
(1.03888 9.76197e-07 0)
(1.03888 8.72108e-07 0)
(1.03888 8.2973e-07 0)
(1.03888 7.22984e-07 0)
(1.03888 7.46285e-07 0)
(1.03888 6.24455e-07 0)
(1.03888 6.60268e-07 0)
(1.03888 5.63664e-07 0)
(1.03888 5.86916e-07 0)
(1.03888 5.23769e-07 0)
(1.03888 5.46077e-07 0)
(1.03888 4.82686e-07 0)
(1.03888 5.32287e-07 0)
(1.03888 4.68612e-07 0)
(1.03888 5.28179e-07 0)
(1.03888 4.79471e-07 0)
(1.03888 5.41232e-07 0)
(1.03888 5.09089e-07 0)
(1.03888 5.57137e-07 0)
(1.03888 5.15047e-07 0)
(1.03888 5.69923e-07 0)
(1.03888 5.23508e-07 0)
(1.03888 5.6416e-07 0)
(1.03888 5.14e-07 0)
(1.03888 5.5442e-07 0)
(1.03888 5.21956e-07 0)
(1.03888 5.64762e-07 0)
(1.03888 5.42349e-07 0)
(1.03888 6.17043e-07 0)
(1.03888 6.41607e-07 0)
(1.03888 7.60856e-07 0)
(1.03888 8.49845e-07 0)
(1.03888 1.06035e-06 0)
(1.03888 1.28522e-06 0)
(1.03888 1.6547e-06 0)
(1.03888 2.12383e-06 0)
(1.03888 2.83081e-06 0)
(1.03888 3.73981e-06 0)
(1.03888 5.05557e-06 0)
(1.03888 6.81037e-06 0)
(1.03888 9.34689e-06 0)
(1.03888 1.2759e-05 0)
(1.03887 1.80711e-05 0)
(1.03887 2.51676e-05 0)
(1.03886 4.03761e-05 0)
(1.03884 6.648e-05 0)
(1.03881 0.000188491 0)
(1.0387 0.00053029 0)
(1.03863 0.00191145 0)
(1.03784 0.00385966 0)
(0.975334 0.0610579 0)
(1.05871 0.0294623 0)
(1.02846 0.0075166 0)
(1.04304 0.000357968 0)
(1.03682 -0.000476558 0)
(1.03954 0.000248373 0)
(1.03844 0.000445791 0)
(1.03896 0.000547014 0)
(1.03878 0.000472761 0)
(1.0389 0.000411892 0)
(1.03887 0.000339297 0)
(1.0389 0.00028385 0)
(1.03891 0.000235379 0)
(1.03892 0.000197241 0)
(1.03892 0.00016597 0)
(1.03893 0.000140812 0)
(1.03893 0.000120222 0)
(1.03894 0.000103198 0)
(1.03894 8.90018e-05 0)
(1.03894 7.69781e-05 0)
(1.03894 6.67603e-05 0)
(1.03894 5.78836e-05 0)
(1.03894 5.0332e-05 0)
(1.03894 4.36139e-05 0)
(1.03894 3.78053e-05 0)
(1.03894 3.27446e-05 0)
(1.03894 2.83227e-05 0)
(1.03894 2.44043e-05 0)
(1.03894 2.10508e-05 0)
(1.03894 1.79729e-05 0)
(1.03894 1.54772e-05 0)
(1.03894 1.31114e-05 0)
(1.03894 1.11514e-05 0)
(1.03894 9.4345e-06 0)
(1.03894 7.93048e-06 0)
(1.03894 6.6174e-06 0)
(1.03894 5.5671e-06 0)
(1.03894 4.55316e-06 0)
(1.03894 3.88506e-06 0)
(1.03894 3.11531e-06 0)
(1.03894 2.64938e-06 0)
(1.03894 2.19185e-06 0)
(1.03894 1.85276e-06 0)
(1.03894 1.55357e-06 0)
(1.03893 1.35249e-06 0)
(1.03893 1.09837e-06 0)
(1.03893 1.03841e-06 0)
(1.03893 7.96385e-07 0)
(1.03893 7.5525e-07 0)
(1.03893 5.96357e-07 0)
(1.03893 5.43882e-07 0)
(1.03893 4.33398e-07 0)
(1.03893 3.86671e-07 0)
(1.03893 2.70304e-07 0)
(1.03893 2.91947e-07 0)
(1.03893 1.65417e-07 0)
(1.03893 1.98005e-07 0)
(1.03893 9.94121e-08 0)
(1.03893 1.19721e-07 0)
(1.03893 5.42524e-08 0)
(1.03893 7.68984e-08 0)
(1.03893 9.67208e-09 0)
(1.03893 6.02993e-08 0)
(1.03893 -3.71192e-09 0)
(1.03893 5.62938e-08 0)
(1.03893 7.76331e-09 0)
(1.03893 6.89761e-08 0)
(1.03893 3.96829e-08 0)
(1.03893 9.12649e-08 0)
(1.03893 4.78179e-08 0)
(1.03893 1.04302e-07 0)
(1.03893 5.89041e-08 0)
(1.03893 1.02208e-07 0)
(1.03893 4.91156e-08 0)
(1.03893 8.74323e-08 0)
(1.03893 5.45932e-08 0)
(1.03893 9.83443e-08 0)
(1.03893 7.32431e-08 0)
(1.03893 1.46839e-07 0)
(1.03893 1.71536e-07 0)
(1.03893 2.94713e-07 0)
(1.03893 3.85889e-07 0)
(1.03893 5.98498e-07 0)
(1.03893 8.2812e-07 0)
(1.03893 1.20366e-06 0)
(1.03893 1.65311e-06 0)
(1.03893 2.3401e-06 0)
(1.03893 3.23383e-06 0)
(1.03893 4.54406e-06 0)
(1.03893 6.3066e-06 0)
(1.03893 8.88695e-06 0)
(1.03893 1.24205e-05 0)
(1.03893 1.8076e-05 0)
(1.03893 2.59044e-05 0)
(1.03892 4.30188e-05 0)
(1.03891 7.20319e-05 0)
(1.03889 0.000201415 0)
(1.03882 0.000549931 0)
(1.03882 0.00196692 0)
(1.03856 0.00394856 0)
(0.973651 0.0536315 0)
(1.05672 0.0275423 0)
(1.02804 0.00727654 0)
(1.04273 0.000312411 0)
(1.03644 -0.000461852 0)
(1.03919 0.000225678 0)
(1.0381 0.000432456 0)
(1.03868 0.00052966 0)
(1.03854 0.000460038 0)
(1.03869 0.000400847 0)
(1.0387 0.000330786 0)
(1.03876 0.000276877 0)
(1.03879 0.000229787 0)
(1.03882 0.00019264 0)
(1.03884 0.000162202 0)
(1.03886 0.000137705 0)
(1.03888 0.000117654 0)
(1.03889 0.000101075 0)
(1.0389 8.72471e-05 0)
(1.03891 7.55362e-05 0)
(1.03892 6.55755e-05 0)
(1.03892 5.69017e-05 0)
(1.03893 4.95397e-05 0)
(1.03893 4.29751e-05 0)
(1.03894 3.72836e-05 0)
(1.03894 3.23165e-05 0)
(1.03894 2.79823e-05 0)
(1.03894 2.41373e-05 0)
(1.03895 2.08373e-05 0)
(1.03895 1.78004e-05 0)
(1.03895 1.53453e-05 0)
(1.03895 1.30108e-05 0)
(1.03895 1.10649e-05 0)
(1.03895 9.35691e-06 0)
(1.03895 7.8668e-06 0)
(1.03895 6.55557e-06 0)
(1.03895 5.50044e-06 0)
(1.03895 4.48091e-06 0)
(1.03895 3.81444e-06 0)
(1.03895 3.04826e-06 0)
(1.03895 2.57885e-06 0)
(1.03895 2.12245e-06 0)
(1.03895 1.7929e-06 0)
(1.03895 1.49911e-06 0)
(1.03895 1.30697e-06 0)
(1.03895 1.05422e-06 0)
(1.03895 9.99784e-07 0)
(1.03895 7.65027e-07 0)
(1.03895 7.21427e-07 0)
(1.03895 5.63474e-07 0)
(1.03895 5.10464e-07 0)
(1.03895 3.98528e-07 0)
(1.03895 3.55526e-07 0)
(1.03895 2.31573e-07 0)
(1.03895 2.51817e-07 0)
(1.03895 1.22874e-07 0)
(1.03895 1.52711e-07 0)
(1.03895 5.42803e-08 0)
(1.03895 7.25053e-08 0)
(1.03895 5.5583e-09 0)
(1.03895 2.87398e-08 0)
(1.03895 -4.11343e-08 0)
(1.03895 1.01557e-08 0)
(1.03895 -5.4796e-08 0)
(1.03895 6.01238e-09 0)
(1.03895 -4.20306e-08 0)
(1.03895 1.86603e-08 0)
(1.03895 -8.70616e-09 0)
(1.03895 4.6244e-08 0)
(1.03895 2.20794e-09 0)
(1.03895 5.97909e-08 0)
(1.03895 1.51119e-08 0)
(1.03895 6.05701e-08 0)
(1.03895 6.11527e-09 0)
(1.03895 4.13638e-08 0)
(1.03895 7.20427e-09 0)
(1.03895 5.12732e-08 0)
(1.03895 2.38673e-08 0)
(1.03895 9.45732e-08 0)
(1.03895 1.17202e-07 0)
(1.03895 2.41268e-07 0)
(1.03895 3.28352e-07 0)
(1.03895 5.3042e-07 0)
(1.03895 7.52088e-07 0)
(1.03895 1.12168e-06 0)
(1.03895 1.55882e-06 0)
(1.03895 2.23053e-06 0)
(1.03895 3.11033e-06 0)
(1.03895 4.40388e-06 0)
(1.03895 6.14712e-06 0)
(1.03895 8.7205e-06 0)
(1.03895 1.22943e-05 0)
(1.03895 1.81458e-05 0)
(1.03895 2.64699e-05 0)
(1.03895 4.49017e-05 0)
(1.03895 7.57965e-05 0)
(1.03893 0.000208507 0)
(1.03892 0.000554627 0)
(1.03898 0.00196674 0)
(1.03921 0.00392523 0)
(0.972302 0.0467453 0)
(1.055 0.0253108 0)
(1.02767 0.00688761 0)
(1.04245 0.000268863 0)
(1.0361 -0.000440135 0)
(1.03886 0.000200594 0)
(1.03778 0.000409866 0)
(1.03841 0.000501544 0)
(1.03831 0.000437557 0)
(1.0385 0.000381338 0)
(1.03854 0.000315204 0)
(1.03862 0.000263986 0)
(1.03867 0.000219271 0)
(1.03872 0.000183917 0)
(1.03875 0.000154959 0)
(1.03878 0.000131647 0)
(1.03881 0.000112565 0)
(1.03883 9.67866e-05 0)
(1.03885 8.362e-05 0)
(1.03887 7.2472e-05 0)
(1.03888 6.29865e-05 0)
(1.03889 5.47011e-05 0)
(1.0389 4.76872e-05 0)
(1.03891 4.14205e-05 0)
(1.03892 3.59757e-05 0)
(1.03893 3.12123e-05 0)
(1.03893 2.70611e-05 0)
(1.03894 2.33782e-05 0)
(1.03894 2.02098e-05 0)
(1.03894 1.72814e-05 0)
(1.03895 1.49237e-05 0)
(1.03895 1.26748e-05 0)
(1.03895 1.07909e-05 0)
(1.03895 9.12976e-06 0)
(1.03895 7.68737e-06 0)
(1.03895 6.40993e-06 0)
(1.03895 5.37697e-06 0)
(1.03895 4.37394e-06 0)
(1.03896 3.72579e-06 0)
(1.03896 2.98085e-06 0)
(1.03896 2.52171e-06 0)
(1.03896 2.07413e-06 0)
(1.03896 1.75926e-06 0)
(1.03896 1.47484e-06 0)
(1.03896 1.29436e-06 0)
(1.03896 1.04667e-06 0)
(1.03896 9.99017e-07 0)
(1.03896 7.7456e-07 0)
(1.03896 7.30655e-07 0)
(1.03896 5.73847e-07 0)
(1.03896 5.19315e-07 0)
(1.03896 4.05272e-07 0)
(1.03896 3.63783e-07 0)
(1.03896 2.34243e-07 0)
(1.03896 2.53417e-07 0)
(1.03896 1.24295e-07 0)
(1.03896 1.51782e-07 0)
(1.03896 5.55715e-08 0)
(1.03896 7.28359e-08 0)
(1.03896 5.12371e-09 0)
(1.03896 2.96832e-08 0)
(1.03896 -4.22516e-08 0)
(1.03896 9.63468e-09 0)
(1.03896 -5.70701e-08 0)
(1.03896 5.12972e-09 0)
(1.03896 -4.21756e-08 0)
(1.03896 1.84472e-08 0)
(1.03896 -7.56506e-09 0)
(1.03896 5.02535e-08 0)
(1.03896 6.47083e-09 0)
(1.03896 6.41639e-08 0)
(1.03896 1.96054e-08 0)
(1.03896 6.63289e-08 0)
(1.03896 1.23461e-08 0)
(1.03896 4.38221e-08 0)
(1.03896 7.35458e-09 0)
(1.03896 5.08044e-08 0)
(1.03896 2.15833e-08 0)
(1.03896 8.7901e-08 0)
(1.03896 1.06374e-07 0)
(1.03896 2.28576e-07 0)
(1.03896 3.12677e-07 0)
(1.03896 5.07505e-07 0)
(1.03896 7.19837e-07 0)
(1.03896 1.07888e-06 0)
(1.03896 1.50171e-06 0)
(1.03896 2.14964e-06 0)
(1.03896 2.99704e-06 0)
(1.03896 4.24637e-06 0)
(1.03896 5.93112e-06 0)
(1.03896 8.43666e-06 0)
(1.03896 1.19584e-05 0)
(1.03896 1.78377e-05 0)
(1.03897 2.63827e-05 0)
(1.03897 4.54665e-05 0)
(1.03897 7.71361e-05 0)
(1.03896 0.000209096 0)
(1.03901 0.000544213 0)
(1.03912 0.0019135 0)
(1.03982 0.00379827 0)
(0.971221 0.0403099 0)
(1.05353 0.0228267 0)
(1.02736 0.00636892 0)
(1.0422 0.000228095 0)
(1.0358 -0.000411182 0)
(1.03857 0.000174377 0)
(1.03749 0.000379174 0)
(1.03817 0.000463909 0)
(1.03809 0.000406316 0)
(1.03832 0.0003542 0)
(1.03838 0.0002932 0)
(1.03849 0.000245691 0)