/*--------------------------------*- C++ -*----------------------------------*\
| =========                 |                                                 |
| \\      /  F ield         | OpenFOAM: The Open Source CFD Toolbox           |
|  \\    /   O peration     | Version:  2.3.0                                 |
|   \\  /    A nd           | Web:      www.OpenFOAM.org                      |
|    \\/     M anipulation  |                                                 |
\*---------------------------------------------------------------------------*/
FoamFile
{
    version     2.0;
    format      ascii;
    class       volScalarField;
    location    "0.5";
    object      T;
}
// * * * * * * * * * * * * * * * * * * * * * * * * * * * * * * * * * * * * * //

dimensions      [0 0 0 1 0 0 0];

internalField   nonuniform List<scalar> 
2268
(
270
270
270
270
270
270
270
270
270
270
270
270
270
270
270
270
270
270
270
270
270
270
270
270
270
270
270
270
270
270
270
270
270
270
270
270
270
270
270
270
270
270
270
270
270
270
270
270
270
270
270
270
270
270
270
270
270
270
270
270
270
270
270
270
270
270
270
270
270
270
270
270
270
270
270
270
270
270
270
270
270
270
270
270
270
270
270
270
270
270
270
270
270
270
270
270
270
270
270
270
270
270
270
270
270
270
270
270
270
270
270
270
270
270
270
270
270
270
270
270
270
270
270
270.001
270.001
270.001
270.001
270
270
270
270
270
270
270
270
270
270
270
270
270
270
270
270
270
270.001
270.001
270
270
270.002
270.003
270.003
270.003
270.002
270.001
270.001
270
270
270
270
270
270
270
270
270
270
270
270.002
270.001
269.989
269.979
269.975
269.979
269.987
269.996
270.002
270.006
270.007
270.006
270.003
270.001
270
270
270
270
269.993
269.995
269.998
269.993
269.971
269.949
270.144
270.005
269.997
270.002
270.001
269.991
269.992
269.992
269.992
269.992
269.992
269.992
269.992
269.999
269.999
269.995
269.995
270.017
270.022
270.093
270.102
270.005
270.006
269.994
269.994
269.998
270.008
270.017
269.993
269.992
269.992
269.992
269.999
270.018
270.04
270.095
270.123
270.108
270.114
270.148
270.025
270.008
269.992
269.996
270.04
270.24
270.112
270.014
269.997
269.992
269.992
270
270.074
270.107
270.141
270.174
270.176
270.149
270.173
270.114
270.333
270.17
270.054
270.372
270.828
270.516
270.126
270.012
269.992
269.992
269.999
270.034
270.085
270.13
270.171
270.264
270.233
270.196
270.095
270.142
270.139
270.252
271.245
272.017
271.534
270.489
270.063
269.992
269.992
269.998
270.011
270.06
270.112
270.199
270.296
270.31
270.215
270.06
270.053
270.075
270.587
272.166
272.743
272.497
271.239
270.219
269.993
269.992
269.997
270.005
270.035
270.091
270.194
270.303
270.348
270.227
270.09
270.057
270.114
270.802
271.998
272.525
272.586
271.679
270.555
269.995
269.992
269.998
270.003
270.011
270.048
270.131
270.277
270.342
270.192
270.131
270.132
270.201
270.801
271.423
271.92
272.093
271.52
270.597
270.006
269.992
270
270
270
270
270.003
270.004
269.981
269.937
269.918
269.901
269.888
269.889
269.904
269.928
269.953
269.975
269.992
270.003
270.007
270.006
270.003
270
269.999
270
270
270.001
270
269.99
269.988
270.039
270.175
270.243
270.182
270.083
269.987
269.912
269.861
269.84
269.842
269.866
269.906
269.951
269.986
270.006
270.012
270.011
270
270.003
270.007
269.956
269.785
270.015
271.802
274.468
274.287
272.849
272.022
271.38
270.93
270.65
270.455
270.255
270.04
269.88
269.814
269.824
269.871
269.92
269.958
270.002
270.009
270.008
269.997
269.929
269.86
270.461
272.171
273.844
274.022
272.938
271.547
270.629
270.483
270.884
271.114
270.691
270.35
270.183
270.1
270.03
269.977
269.951
270.003
270.015
270.012
269.986
269.873
269.819
270.378
272.025
273.745
273.824
272.801
271.903
270.558
269.328
269.207
269.572
270.169
270.444
270.473
270.365
270.258
270.177
270.105
270.001
270.017
270.023
269.946
269.715
269.724
271.017
273.851
276.105
275.42
272.749
270.942
270.621
269.951
269.423
269.626
269.655
269.503
269.686
269.849
269.873
270.075
270.112
269.999
270.012
270.032
269.932
269.602
269.553
271.21
274.989
278.167
277.472
273.65
270.375
269.611
269.636
269.315
270.225
270.5
270.133
269.812
269.782
269.725
269.763
269.888
269.999
270.007
270.034
269.967
269.609
269.35
270.76
274.855
279.247
280.065
277.05
273.01
270.133
269.268
270.281
272.011
272.084
271.435
270.634
270.269
269.876
269.828
269.986
269.999
270.003
270.028
270.009
269.708
269.273
270.077
273.626
278.75
282.05
281.867
279.263
276.056
273.972
274.595
275.649
275.241
274.246
272.75
271.402
270.082
269.815
270.076
269.999
270
270.017
270.034
269.844
269.358
269.471
271.824
276.649
281.875
285.163
285.712
284.288
282.341
281.619
281.094
279.893
278.234
275.753
272.818
270.533
269.89
270.13
270
270
270.008
270.037
269.958
269.553
269.199
270.292
274.006
279.723
285.398
289.175
290.466
289.829
288.571
287.108
285.422
283.137
279.586
275.055
271.513
270.126
270.102
270
270
270.002
270.028
270.021
269.764
269.259
269.429
271.765
276.792
283.334
289.313
293.118
294.332
293.746
292.501
291.045
288.654
284.384
278.573
273.406
270.658
270.05
270.001
270.001
270
270.015
270.038
269.922
269.497
269.183
270.265
273.927
279.984
286.791
292.289
295.33
296.226
296.134
295.6
293.868
289.73
283.221
276.515
272.06
270.287
270.001
270.001
270
270.006
270.03
270.005
269.751
269.327
269.534
271.636
276.22
282.421
288.429
292.78
295.276
296.695
297.54
297.077
293.918
287.778
280.451
274.54
271.316
270.001
270.001
270
270.001
270.016
270.028
269.926
269.613
269.412
270.229
272.933
277.461
282.696
287.333
290.842
293.566
295.821
296.89
295.308
290.484
283.743
277.359
272.939
270.001
270.001
270
270
270.005
270.02
270.005
269.858
269.609
269.686
270.789
273.296
276.852
280.661
284.193
287.482
290.636
293.022
293.261
290.413
285.135
279.245
274.371
270.001
270.001
270.001
270
270
270.008
270.02
269.989
269.849
269.686
269.844
270.727
272.454
274.789
277.444
280.359
283.521
286.422
287.916
286.972
283.67
279.155
274.75
270
270.001
270.001
270.001
270
270
270.011
270.025
269.991
269.86
269.693
269.703
270.122
271.043
272.448
274.338
276.695
279.2
281.054
281.368
279.884
277.14
273.97
270
270.001
270.001
270.001
270
269.999
270.002
270.016
270.029
269.989
269.846
269.633
269.48
269.541
269.926
270.71
271.931
273.467
274.9
275.646
275.367
274.183
272.475
270.001
270.001
270.001
270.001
270.001
270
269.999
270.003
270.017
270.027
269.988
269.863
269.668
269.472
269.366
269.433
269.741
270.301
270.992
271.558
271.768
271.552
270.993
270.001
270.001
270.001
270.001
270.001
270.001
269.999
269.998
270.002
270.015
270.03
270.019
269.954
269.831
269.673
269.515
269.404
269.392
269.503
269.707
269.921
270.061
270.083
270.001
270.001
270.001
270.001
270.001
270.001
270
269.999
269.997
270.001
270.015
270.039
270.056
270.045
269.992
269.894
269.757
269.611
269.502
269.479
269.551
269.682
269.821
270.001
270.001
270.001
270.001
270.001
270.001
270.001
270.001
269.999
269.997
269.999
270.009
270.029
270.053
270.068
270.062
270.025
269.956
269.874
269.811
269.797
269.832
269.896
270.001
270.001
270.001
270.001
270.001
270.001
270.001
270.001
270.001
270
269.997
269.995
269.997
270.006
270.022
270.041
270.057
270.062
270.051
270.03
270.007
269.994
269.993
270.001
270
270
270.001
270.001
270.001
270.001
270.001
270.001
270.001
270
269.998
269.994
269.991
269.992
269.998
270.01
270.026
270.04
270.045
270.04
270.029
270.016
270.001
270
270
270
270
270
270
270
270
270
270.001
270.001
270.001
269.999
269.995
269.993
269.992
269.995
270.001
270.007
270.01
270.009
270.006
270
270
270
270
270
270
270
270
269.999
269.999
270
270.001
270.002
270.002
270.002
270
269.998
269.995
269.994
269.994
269.996
269.997
269.999
270
270.001
270.001
270
270
270
270
270
269.999
269.999
269.999
270
270
270.001
270.001
270.002
270.002
270.001
269.999
269.998
269.998
269.998
269.998
270
270.001
270.001
270.001
270
270
270
269.999
269.999
269.999
269.999
270
270
270
270
270
270.001
270.001
270.001
270.001
270
270
269.999
270
270.001
270.001
270.001
270
270
270
269.999
269.999
269.999
269.999
270
270
270
270
270
270
270
270
270
270
270
270
270.001
270.002
270.001
270.001
270.001
270
270
269.999
269.999
269.999
269.999
270
270
270
270
270
270
270
269.999
269.999
269.999
270
270
270.001
270.002
270.001
270.001
270.001
270
270
269.999
269.999
269.999
270
270
270
270
270
270
270
269.999
269.999
269.999
269.999
270
270
270.001
270.001
270.001
270.001
270
270
270
269.999
270
270
270
270
270
270
270
270
269.999
269.999
269.999
269.999
270
270
270
270.001
270.001
270.001
270.001
270
270
270
270
270
270
270
270.001
270.001
270
270
270
269.999
269.999
269.999
269.999
269.999
270
270
270.001
270
270.001
270
270
270
270
270
270
270.001
270.001
270.001
270
270
270
270
269.999
269.999
269.999
269.999
269.999
270
270
270.001
270
270
270
270
270
270
270
270.001
270.001
270.001
270
270
270
270
270
269.999
269.999
269.999
269.999
269.999
270
270
270
270
270
270
270
270
270
270
270
270
270
270
270
270
270
270
269.999
269.999
270
270
270
270
270
270
270
270
270
270
270
270
270
270
270
270
270
270
270
270
270
270
270
270
270
269.999
270
270
270.001
270
270
270
270
270
270
270
270
270
270
270
270
270
270
270
270
270
270
270
269.999
270
270
270.001
270
270
270
270
270
270
270
269.999
270
270
270
270
270
270
270
270
270
270
270
269.999
270
270
270.001
270
270
270
270
270
270
270
269.999
270
270
270
270
270
270
270
270
270
270
270
270
270
270.001
270.001
270
270
270
270
270
270
270
270
270
270
270.001
270
270
270
270
270
270
270
270
270
270.001
270.001
269.998
269.998
269.998
269.998
270.009
270.008
270.006
270.005
269.978
269.987
269.992
269.996
269.942
269.942
269.945
269.95
270.055
270.027
270.003
269.984
270.112
270.1
270.082
270.062
269.996
270.063
270.089
270.097
270.045
270.056
270.068
270.077
270.207
270.183
270.137
270.103
270.357
270.341
270.258
270.154
270.395
270.402
270.317
270.236
270.211
270.31
270.358
270.39
270.07
270.066
270.063
270.07
270.449
270.257
270.123
270.058
271.228
270.733
270.398
270.213
272.01
271.199
270.647
270.314
272.239
271.274
270.613
270.201
271.88
270.982
270.362
269.97
271.173
270.549
270.113
269.836
270.461
270.171
269.964
269.834
270.023
269.971
269.931
269.905
269.906
269.941
269.965
269.978
269.95
269.978
269.998
270.009
269.998
270.002
270.006
270.007
270.008
270.004
270.001
270
270.002
270
269.999
269.998
269.999
269.999
269.999
270
269.999
270
270
270
270
270
270
270.001
270
270
270
270.001
270
270
270
270.001
270
270
270
270
270
270
270
270
270
269.999
269.999
269.999
269.999
269.999
270
270
269.999
269.999
270
270
269.999
270
270
270
270
270
270
270
270
270
270.001
270
270.001
270
270
270
270.001
270
270
270.001
270
270
270.001
270
270
270.004
270.009
270.014
270.078
270.174
270.24
270.127
270.086
270.171
270.231
270.406
270.791
271.093
271.244
270.982
270.415
270.091
269.992
270.005
270.006
270.009
270.01
270.151
270.065
270.092
270.048
270.021
270.073
270.106
270.156
270.217
270.279
270.347
270.322
270.134
270.045
269.992
269.999
270.002
270.005
270.011
270.282
270.075
270.018
270.008
270.001
269.999
269.996
269.987
269.976
269.988
270.04
270.074
270.022
270.009
269.992
269.96
269.978
269.992
270.012
270.269
270.099
269.991
269.977
270.002
270.024
270.047
270.078
270.089
270.069
270.041
270.025
270.002
270
269.991
269.967
269.963
269.975
270.011
270.221
270.368
270.091
269.996
270.019
270.097
270.206
270.285
270.249
270.136
270.046
270.01
270.003
269.999
269.991
270.035
270.004
269.983
269.98
270.074
270.258
270.215
270.215
270.186
270.247
270.358
270.331
270.189
270.062
270.02
270.004
270.012
269.998
269.991
270.079
270.051
270.023
269.996
269.993
270.052
270.16
270.523
270.471
270.444
270.386
270.295
270.118
270.033
270.021
270.017
270.011
269.997
269.992
270.081
270.067
270.059
270.034
270.011
269.989
270.003
270.053
270.125
270.212
270.195
270.106
270.045
270.017
270.006
270.003
269.999
269.995
269.992
270.081
270.05
270.09
270.092
270.04
270.012
269.996
269.978
269.979
269.996
270.01
270.009
270.005
270.002
270.001
270.001
270
269.997
269.994
270.062
270.043
270.047
270.637
270.588
270.159
270.041
270
269.981
269.974
269.981
269.992
270.003
270.01
270.013
270.014
270.011
270.004
269.996
270.159
270.29
270.434
270.521
270.465
270.44
270.236
270.094
270.013
269.99
269.991
269.999
270.009
270.017
270.022
270.021
270.018
270.007
269.997
270.421
270.462
270.465
270.263
270.124
270.105
270.05
270.046
270.047
270.053
270.047
270.032
270.025
270.03
270.03
270.027
270.021
270.007
269.996
270.057
270.016
269.995
269.989
270.012
270.012
270.01
270.008
270.01
270.032
270.054
270.042
270.034
270.034
270.03
270.023
270.016
270.004
269.996
270.011
269.99
269.997
270.003
270.007
270.011
270.012
270.003
269.994
270.014
270.051
270.047
270.037
270.036
270.03
270.02
270.009
270.002
269.995
270.066
269.991
269.996
269.991
269.987
269.986
269.991
269.997
269.996
270.004
270.04
270.052
270.041
270.036
270.026
270.022
270.014
270.002
269.995
270.03
269.871
269.889
269.901
269.916
269.942
269.974
269.996
270.003
270.01
270.026
270.047
270.052
270.049
270.017
270.011
270.009
270.003
269.996
269.836
269.628
269.693
269.776
269.86
269.942
269.997
270.015
270.018
270.036
270.055
270.061
270.062
270.063
270.038
270.012
269.995
269.995
269.996
269.623
269.438
269.56
269.724
269.878
269.986
270.034
270.039
270.034
270.049
270.099
270.133
270.095
270.082
270.06
270.014
269.994
269.982
269.995
269.595
269.476
269.606
269.79
269.943
270.021
270.039
270.039
270.039
270.044
270.083
270.16
270.126
270.081
270.03
270.016
269.996
269.983
269.992
269.726
269.684
269.777
269.903
269.994
270.024
270.026
270.029
270.033
270.037
270.048
270.094
270.084
270.054
270.022
270.014
269.995
269.981
269.99
269.888
269.89
269.932
269.981
270.009
270.015
270.02
270.029
270.033
270.034
270.033
270.036
270.041
270.035
270.013
270.002
269.988
269.971
269.986
269.988
269.996
270.001
270.005
270.006
270.012
270.028
270.043
270.044
270.037
270.03
270.02
270.024
270.028
270.005
269.988
269.978
269.967
269.976
270.015
270.015
270.007
270.001
270.002
270.016
270.044
270.065
270.061
270.045
270.031
270.019
270.019
270.02
269.996
269.985
269.981
269.977
269.986
270.007
270.004
269.999
269.996
270.002
270.025
270.066
270.093
270.079
270.053
270.033
270.02
270.018
270.017
270.014
270.011
269.999
269.989
269.99
269.999
269.998
269.996
269.994
270.003
270.038
270.1
270.132
270.098
270.058
270.035
270.021
270.019
270.024
270.079
270.1
270.036
270.002
269.992
269.999
269.998
269.995
269.993
270.008
270.065
270.151
270.176
270.111
270.056
270.034
270.021
270.012
270.023
270.105
270.23
270.132
270.041
269.992
270
269.999
269.993
269.992
270.025
270.119
270.218
270.208
270.108
270.043
270.028
270.018
270.007
270.022
270.131
270.289
270.29
270.166
269.998
270.001
269.999
269.99
269.993
270.059
270.197
270.275
270.205
270.083
270.025
270.018
270.012
270.005
270.021
270.115
270.301
270.371
270.278
270.01
270.001
269.998
269.987
269.997
270.099
270.266
270.293
270.167
270.057
270.02
270.021
270.013
270.003
270.016
270.169
270.32
270.333
270.225
270.013
270.001
269.999
269.987
269.995
270.115
270.302
270.307
270.145
270.051
270.042
270.052
270.045
270.043
270.116
270.344
270.406
270.285
270.162
270.001
270.001
270
269.989
269.986
270.087
270.304
270.363
270.174
270.051
270.065
270.092
270.105
270.163
270.386
270.67
270.45
270.218
270.117
269.993
270.001
270.001
269.996
269.981
270.023
270.211
270.399
270.31
270.098
270.064
270.121
270.21
270.323
270.597
270.827
270.375
270.129
270.023
269.996
270
270.001
270.001
269.989
269.982
270.068
270.277
270.432
270.3
270.158
270.189
270.336
270.568
270.818
270.689
270.201
269.997
269.91
269.993
270
270.001
270.002
269.999
269.981
269.985
270.081
270.304
270.432
270.374
270.389
270.512
270.698
270.695
270.377
270.09
269.96
269.894
269.995
270
270
270.001
270.005
269.994
269.965
269.974
270.088
270.283
270.405
270.482
270.581
270.751
270.593
270.213
270.034
269.957
269.913
269.998
270
270
270
270.007
269.998
269.959
269.948
270.021
270.164
270.333
270.487
270.66
270.84
270.633
270.228
270.035
269.958
269.923
270
270
270
270
270.008
269.987
269.948
270.002
270.191
270.37
270.518
270.657
270.781
270.877
271.059
270.601
270.115
269.95
269.909
270.001
270
270
270.001
270.007
269.967
269.96
270.157
270.494
270.711
270.781
270.777
270.742
270.797
271.323
271.628
270.22
269.899
269.86
270.001
270
270
270.001
270.003
269.951
270.023
270.369
270.732
270.871
270.852
270.748
270.594
270.801
271.442
272.034
270.421
269.858
269.782
270.001
270
270
270.001
269.998
269.947
270.141
270.614
270.871
270.841
270.732
270.596
270.562
271.103
271.689
272.2
271.102
270.091
269.736
270.003
270
270
270.001
269.993
269.956
270.278
270.82
270.895
270.738
270.6
270.531
270.794
271.552
271.871
272.124
272.181
270.756
270.16
269.998
270
270
270
269.991
269.968
270.367
270.911
270.863
270.685
270.565
270.572
271.023
271.775
271.903
272.053
272.295
271.735
271.045
270
)
;

boundaryField
{
    leftWall
    {
        type            zeroGradient;
    }
    rightWall
    {
        type            zeroGradient;
    }
    lowerWall
    {
        type            zeroGradient;
    }
    atmosphere
    {
        type            zeroGradient;
    }
    defaultFaces
    {
        type            empty;
    }
}


// ************************************************************************* //
