/*--------------------------------*- C++ -*----------------------------------*\
| =========                 |                                                 |
| \\      /  F ield         | OpenFOAM: The Open Source CFD Toolbox           |
|  \\    /   O peration     | Version:  2.3.0                                 |
|   \\  /    A nd           | Web:      www.OpenFOAM.org                      |
|    \\/     M anipulation  |                                                 |
\*---------------------------------------------------------------------------*/
FoamFile
{
    version     2.0;
    format      ascii;
    class       volScalarField;
    location    "1.5";
    object      p;
}
// * * * * * * * * * * * * * * * * * * * * * * * * * * * * * * * * * * * * * //

dimensions      [0 2 -2 0 0 0 0];

internalField   nonuniform List<scalar> 
4000
(
427.059
413.823
409.767
404.491
399.805
395.016
390.413
385.867
381.41
377.008
372.656
368.342
364.06
359.802
355.565
351.345
347.137
342.94
338.752
334.57
330.394
326.223
322.054
317.888
313.725
309.563
305.403
301.243
297.085
292.927
288.77
284.613
280.456
276.299
272.143
267.987
263.831
259.675
255.519
251.363
247.207
243.051
238.895
234.739
230.584
226.428
222.272
218.116
213.96
209.805
205.649
201.493
197.337
193.181
189.025
184.869
180.714
176.558
172.402
168.246
164.09
159.934
155.779
151.623
147.467
143.311
139.155
134.999
130.844
126.688
122.532
118.376
114.22
110.064
105.908
101.752
97.5966
93.4408
89.2849
85.129
80.9732
76.8173
72.6615
68.5057
64.35
60.1943
56.0388
51.8834
47.7282
43.5735
39.4193
35.2659
31.1138
26.9635
22.8158
18.6714
14.5313
10.3931
6.27131
2.14867
424.612
413.733
409.617
404.303
399.616
394.825
390.221
385.675
381.217
376.814
372.462
368.148
363.865
359.608
355.371
351.15
346.942
342.745
338.557
334.375
330.199
326.027
321.859
317.693
313.53
309.368
305.208
301.048
296.89
292.732
288.574
284.417
280.261
276.104
271.948
267.792
263.635
259.479
255.323
251.168
247.012
242.856
238.7
234.544
230.388
226.233
222.077
217.921
213.765
209.609
205.453
201.298
197.142
192.986
188.83
184.674
180.518
176.362
172.207
168.051
163.895
159.739
155.583
151.427
147.272
143.116
138.96
134.804
130.648
126.492
122.337
118.181
114.025
109.869
105.713
101.557
97.4013
93.2455
89.0896
84.9337
80.7779
76.622
72.4662
68.3104
64.1547
59.999
55.8435
51.6881
47.5329
43.3782
39.224
35.0706
30.9185
26.7682
22.6205
18.476
14.3361
10.1984
6.07794
1.96704
423.33
413.729
409.569
404.224
399.537
394.742
390.138
385.59
381.133
376.729
372.377
368.062
363.779
359.522
355.284
351.063
346.856
342.659
338.47
334.289
330.112
325.941
321.772
317.606
313.443
309.281
305.121
300.961
296.803
292.645
288.487
284.33
280.174
276.017
271.861
267.705
263.548
259.392
255.237
251.081
246.925
242.769
238.613
234.457
230.301
226.146
221.99
217.834
213.678
209.522
205.366
201.211
197.055
192.899
188.743
184.587
180.431
176.276
172.12
167.964
163.808
159.652
155.496
151.341
147.185
143.029
138.873
134.717
130.561
126.405
122.25
118.094
113.938
109.782
105.626
101.47
97.3144
93.1585
89.0027
84.8468
80.691
76.5351
72.3793
68.2235
64.0678
59.9121
55.7565
51.6012
47.446
43.2912
39.137
34.9837
30.8315
26.6812
22.5335
18.389
14.2492
10.1116
5.99181
1.88592
422.812
413.821
409.606
404.241
399.554
394.754
390.151
385.602
381.144
376.74
372.387
368.072
363.789
359.531
355.293
351.072
346.865
342.668
338.479
334.297
330.121
325.949
321.781
317.615
313.451
309.29
305.129
300.97
296.811
292.653
288.496
284.339
280.182
276.026
271.869
267.713
263.557
259.401
255.245
251.089
246.933
242.777
238.621
234.466
230.31
226.154
221.998
217.842
213.687
209.531
205.375
201.219
197.063
192.907
188.751
184.596
180.44
176.284
172.128
167.972
163.816
159.661
155.505
151.349
147.193
143.037
138.881
134.726
130.57
126.414
122.258
118.102
113.946
109.79
105.635
101.479
97.3228
93.1669
89.0111
84.8552
80.6994
76.5435
72.3877
68.2319
64.0762
59.9205
55.765
51.6096
47.4544
43.2996
39.1454
34.992
30.8399
26.6895
22.5418
18.3974
14.2577
10.1204
5.99942
1.89073
422.473
413.932
409.671
404.287
399.598
394.793
390.19
385.64
381.182
376.778
372.425
368.109
363.826
359.568
355.33
351.109
346.901
342.704
338.516
334.334
330.158
325.986
321.817
317.651
313.488
309.326
305.165
301.006
296.847
292.69
288.532
284.375
280.218
276.062
271.906
267.749
263.593
259.437
255.281
251.125
246.97
242.814
238.658
234.502
230.346
226.19
222.035
217.879
213.723
209.567
205.411
201.255
197.1
192.944
188.788
184.632
180.476
176.32
172.165
168.009
163.853
159.697
155.541
151.385
147.23
143.074
138.918
134.762
130.606
126.45
122.294
118.139
113.983
109.827
105.671
101.515
97.3592
93.2033
89.0475
84.8916
80.7358
76.5799
72.4241
68.2683
64.1126
59.9569
55.8013
51.6459
47.4908
43.336
39.1818
35.0284
30.8762
26.7259
22.5781
18.4338
14.2942
10.1567
6.03479
1.92176
422.168
414.027
409.737
404.337
399.643
394.834
390.231
385.681
381.222
376.818
372.464
368.149
363.865
359.607
355.369
351.148
346.94
342.743
338.554
334.372
330.196
326.024
321.855
317.69
313.526
309.364
305.204
301.044
296.886
292.728
288.571
284.414
280.257
276.1
271.944
267.788
263.632
259.476
255.32
251.164
247.008
242.852
238.696
234.54
230.385
226.229
222.073
217.917
213.761
209.605
205.45
201.294
197.138
192.982
188.826
184.67
180.515
176.359
172.203
168.047
163.891
159.735
155.58
151.424
147.268
143.112
138.956
134.8
130.644
126.489
122.333
118.177
114.021
109.865
105.709
101.553
97.3976
93.2417
89.0858
84.93
80.7741
76.6183
72.4625
68.3067
64.1509
59.9953
55.8397
51.6843
47.5292
43.3744
39.2201
35.0667
30.9146
26.7642
22.6164
18.472
14.3325
10.1954
6.07251
1.95503
421.897
414.105
409.8
404.385
399.685
394.873
390.27
385.719
381.261
376.856
372.502
368.186
363.903
359.644
355.406
351.185
346.977
342.78
338.591
334.409
330.233
326.061
321.892
317.726
313.563
309.401
305.241
301.081
296.923
292.765
288.607
284.45
280.293
276.137
271.981
267.824
263.668
259.512
255.356
251.2
247.045
242.889
238.733
234.577
230.421
226.265
222.11
217.954
213.798
209.642
205.486
201.33
197.175
193.019
188.863
184.707
180.551
176.395
172.24
168.084
163.928
159.772
155.616
151.46
147.305
143.149
138.993
134.837
130.681
126.525
122.369
118.214
114.058
109.902
105.746
101.59
97.4342
93.2784
89.1225
84.9666
80.8108
76.655
72.4991
68.3433
64.1876
60.0319
55.8764
51.721
47.5658
43.411
39.2568
35.1034
30.9512
26.8008
22.653
18.5087
14.3693
10.2327
6.10835
1.98644
421.661
414.168
409.86
404.431
399.725
394.909
390.307
385.755
381.297
376.891
372.538
368.222
363.938
359.679
355.441
351.22
347.012
342.815
338.626
334.444
330.267
326.095
321.927
317.761
313.598
309.436
305.275
301.116
296.957
292.799
288.642
284.485
280.328
276.172
272.015
267.859
263.703
259.547
255.391
251.235
247.079
242.923
238.768
234.612
230.456
226.3
222.144
217.988
213.833
209.677
205.521
201.365
197.209
193.053
188.898
184.742
180.586
176.43
172.274
168.118
163.963
159.807
155.651
151.495
147.339
143.183
139.028
134.872
130.716
126.56
122.404
118.248
114.092
109.937
105.781
101.625
97.4689
93.313
89.1572
85.0013
80.8455
76.6896
72.5338
68.378
64.2223
60.0666
55.911
51.7556
47.6005
43.4457
39.2914
35.138
30.9858
26.8354
22.6876
18.5434
14.404
10.2681
6.14212
2.01585
421.456
414.22
409.915
404.474
399.762
394.943
390.341
385.788
381.33
376.924
372.571
368.255
363.971
359.712
355.474
351.253
347.044
342.847
338.658
334.476
330.3
326.128
321.959
317.793
313.63
309.468
305.308
301.148
296.99
292.832
288.674
284.517
280.36
276.204
272.048
267.891
263.735
259.579
255.423
251.267
247.112
242.956
238.8
234.644
230.488
226.332
222.177
218.021
213.865
209.709
205.553
201.397
197.242
193.086
188.93
184.774
180.618
176.462
172.307
168.151
163.995
159.839
155.683
151.527
147.372
143.216
139.06
134.904
130.748
126.592
122.436
118.281
114.125
109.969
105.813
101.657
97.5012
93.3453
89.1895
85.0336
80.8778
76.7219
72.5661
68.4103
64.2546
60.0989
55.9433
51.7879
47.6328
43.478
39.3237
35.1703
31.0181
26.8677
22.7199
18.5757
14.4364
10.3011
6.17358
2.04309
421.276
414.262
409.965
404.515
399.796
394.973
390.371
385.819
381.361
376.955
372.601
368.285
364.001
359.742
355.504
351.282
347.074
342.877
338.688
334.506
330.33
326.158
321.989
317.823
313.66
309.498
305.337
301.178
297.019
292.861
288.704
284.547
280.39
276.234
272.077
267.921
263.765
259.609
255.453
251.297
247.141
242.985
238.829
234.674
230.518
226.362
222.206
218.05
213.895
209.739
205.583
201.427
197.271
193.115
188.96
184.804
180.648
176.492
172.336
168.18
164.025
159.869
155.713
151.557
147.401
143.245
139.089
134.934
130.778
126.622
122.466
118.31
114.154
109.998
105.843
101.687
97.5309
93.375
89.2191
85.0633
80.9074
76.7516
72.5958
68.44
64.2842
60.1286
55.973
51.8176
47.6624
43.5076
39.3534
35.1999
31.0477
26.8973
22.7495
18.6054
14.4661
10.3316
6.20252
2.06803
421.12
414.295
410.01
404.552
399.826
395.001
390.399
385.847
381.389
376.982
372.628
368.312
364.028
359.769
355.531
351.31
347.101
342.904
338.715
334.533
330.357
326.185
322.016
317.85
313.687
309.525
305.364
301.205
297.046
292.888
288.731
284.574
280.417
276.261
272.104
267.948
263.792
259.636
255.48
251.324
247.168
243.012
238.856
234.701
230.545
226.389
222.233
218.077
213.922
209.766
205.61
201.454
197.298
193.142
188.987
184.831
180.675
176.519
172.363
168.207
164.052
159.896
155.74
151.584
147.428
143.272
139.116
134.961
130.805
126.649
122.493
118.337
114.181
110.025
105.87
101.714
97.5578
93.402
89.2461
85.0903
80.9344
76.7786
72.6227
68.467
64.3112
60.1555
56
51.8446
47.6894
43.5346
39.3803
35.2269
31.0747
26.9243
22.7764
18.6324
14.4931
10.3594
6.22887
2.09062
420.984
414.322
410.05
404.586
399.853
395.026
390.424
385.871
381.413
377.007
372.653
368.337
364.053
359.794
355.556
351.334
347.126
342.928
338.739
334.557
330.381
326.209
322.04
317.874
313.711
309.549
305.388
301.229
297.07
292.913
288.755
284.598
280.441
276.285
272.128
267.972
263.816
259.66
255.504
251.348
247.192
243.037
238.881
234.725
230.569
226.413
222.258
218.102
213.946
209.79
205.634
201.478
197.323
193.167
189.011
184.855
180.699
176.543
172.387
168.232
164.076
159.92
155.764
151.608
147.452
143.297
139.141
134.985
130.829
126.673
122.517
118.361
114.206
110.05
105.894
101.738
97.5821
93.4263
89.2704
85.1145
80.9587
76.8028
72.647
68.4912
64.3355
60.1798
56.0243
51.8688
47.7137
43.5589
39.4046
35.2512
31.0989
26.9485
22.8007
18.6567
14.5175
10.3846
6.2526
2.1109
420.867
414.343
410.086
404.616
399.878
395.047
390.446
385.893
381.436
377.029
372.675
368.359
364.075
359.816
355.577
351.356
347.147
342.95
338.761
334.579
330.403
326.23
322.062
317.896
313.732
309.571
305.41
301.251
297.092
292.934
288.777
284.62
280.463
276.306
272.15
267.994
263.838
259.682
255.526
251.37
247.214
243.058
238.902
234.747
230.591
226.435
222.279
218.123
213.967
209.812
205.656
201.5
197.344
193.188
189.032
184.877
180.721
176.565
172.409
168.253
164.097
159.942
155.786
151.63
147.474
143.318
139.162
135.006
130.851
126.695
122.539
118.383
114.227
110.071
105.915
101.76
97.6037
93.4478
89.292
85.1361
80.9803
76.8244
72.6686
68.5128
64.3571
60.2014
56.0458
51.8904
47.7353
43.5805
39.4262
35.2728
31.1205
26.9701
22.8222
18.6783
14.5392
10.407
6.27372
2.12888
420.767
414.359
410.116
404.643
399.899
395.066
390.466
385.912
381.455
377.048
372.694
368.378
364.094
359.835
355.596
351.375
347.166
342.969
338.78
334.598
330.421
326.249
322.081
317.915
313.751
309.589
305.429
301.27
297.111
292.953
288.796
284.639
280.482
276.325
272.169
268.013
263.857
259.701
255.545
251.389
247.233
243.077
238.921
234.765
230.61
226.454
222.298
218.142
213.986
209.831
205.675
201.519
197.363
193.207
189.051
184.895
180.74
176.584
172.428
168.272
164.116
159.96
155.805
151.649
147.493
143.337
139.181
135.025
130.87
126.714
122.558
118.402
114.246
110.09
105.934
101.778
97.6226
93.4667
89.3109
85.155
80.9992
76.8433
72.6875
68.5317
64.376
60.2203
56.0647
51.9093
47.7542
43.5993
39.4451
35.2916
31.1394
26.989
22.8411
18.6973
14.5581
10.4267
6.29221
2.14458
420.684
414.372
410.143
404.666
399.917
395.083
390.482
385.929
381.471
377.065
372.711
368.394
364.11
359.851
355.613
351.391
347.183
342.985
338.796
334.614
330.438
326.266
322.097
317.931
313.768
309.606
305.445
301.286
297.127
292.969
288.812
284.655
280.498
276.341
272.185
268.029
263.873
259.717
255.561
251.405
247.249
243.093
238.937
234.782
230.626
226.47
222.314
218.158
214.003
209.847
205.691
201.535
197.379
193.223
189.068
184.912
180.756
176.6
172.444
168.288
164.132
159.977
155.821
151.665
147.509
143.353
139.197
135.042
130.886
126.73
122.574
118.418
114.262
110.106
105.951
101.795
97.6388
93.4829
89.3271
85.1712
81.0153
76.8595
72.7037
68.5479
64.3922
60.2365
56.0809
51.9255
47.7703
43.6155
39.4613
35.3078
31.1556
27.0051
22.8573
18.7135
14.5743
10.4436
6.30808
2.15801
420.617
414.382
410.164
404.685
399.932
395.096
390.496
385.942
381.485
377.079
372.724
368.408
364.124
359.865
355.626
351.405
347.196
342.999
338.81
334.628
330.451
326.279
322.11
317.945
313.781
309.619
305.459
301.299
297.141
292.983
288.825
284.668
280.511
276.355
272.199
268.042
263.886
259.73
255.574
251.418
247.263
243.107
238.951
234.795
230.639
226.483
222.328
218.172
214.016
209.86
205.704
201.549
197.393
193.237
189.081
184.925
180.769
176.613
172.458
168.302
164.146
159.99
155.834
151.678
147.523
143.367
139.211
135.055
130.899
126.743
122.587
118.432
114.276
110.12
105.964
101.808
97.6523
93.4964
89.3405
85.1847
81.0288
76.873
72.7172
68.5614
64.4057
60.25
56.0944
51.939
47.7838
43.629
39.4748
35.3213
31.169
27.0186
22.8707
18.727
14.5879
10.4577
6.32132
2.1692
420.563
414.389
410.182
404.701
399.944
395.107
390.507
385.953
381.496
377.089
372.735
368.419
364.135
359.875
355.637
351.415
347.207
343.009
338.821
334.638
330.462
326.29
322.121
317.955
313.792
309.63
305.469
301.31
297.151
292.993
288.836
284.679
280.522
276.366
272.209
268.053
263.897
259.741
255.585
251.429
247.273
243.118
238.962
234.806
230.65
226.494
222.338
218.183
214.027
209.871
205.715
201.559
197.404
193.248
189.092
184.936
180.78
176.624
172.468
168.313
164.157
160.001
155.845
151.689
147.533
143.378
139.222
135.066
130.91
126.754
122.598
118.442
114.287
110.131
105.975
101.819
97.6631
93.5072
89.3513
85.1955
81.0396
76.8838
72.728
68.5722
64.4164
60.2608
56.1052
51.9498
47.7946
43.6398
39.4856
35.3321
31.1798
27.0294
22.8815
18.7379
14.5987
10.4691
6.33191
2.17813
420.524
414.394
410.194
404.712
399.953
395.115
390.515
385.961
381.504
377.098
372.744
368.427
364.143
359.884
355.645
351.424
347.215
343.018
338.829
334.647
330.47
326.298
322.129
317.964
313.8
309.638
305.478
301.318
297.159
293.002
288.844
284.687
280.53
276.374
272.218
268.061
263.905
259.749
255.593
251.437
247.282
243.126
238.97
234.814
230.658
226.502
222.347
218.191
214.035
209.879
205.723
201.567
197.412
193.256
189.1
184.944
180.788
176.632
172.477
168.321
164.165
160.009
155.853
151.697
147.541
143.386
139.23
135.074
130.918
126.762
122.606
118.451
114.295
110.139
105.983
101.827
97.6712
93.5153
89.3594
85.2036
81.0477
76.8919
72.7361
68.5803
64.4245
60.2689
56.1133
51.9579
47.8027
43.6479
39.4936
35.3402
31.1879
27.0375
22.8896
18.746
14.6069
10.4776
6.33986
2.18483
420.498
414.397
410.203
404.72
399.959
395.12
390.52
385.967
381.51
377.103
372.749
368.432
364.148
359.889
355.651
351.429
347.221
343.023
338.834
334.652
330.475
326.303
322.135
317.969
313.805
309.643
305.483
301.323
297.165
293.007
288.85
284.692
280.536
276.379
272.223
268.067
263.911
259.755
255.599
251.443
247.287
243.131
238.975
234.819
230.664
226.508
222.352
218.196
214.04
209.885
205.729
201.573
197.417
193.261
189.105
184.949
180.794
176.638
172.482
168.326
164.17
160.014
155.859
151.703
147.547
143.391
139.235
135.079
130.923
126.768
122.612
118.456
114.3
110.144
105.988
101.832
97.6766
93.5207
89.3648
85.209
81.0531
76.8973
72.7415
68.5857
64.4299
60.2743
56.1187
51.9633
47.8081
43.6533
39.499
35.3456
31.1933
27.0429
22.895
18.7514
14.6123
10.4832
6.34516
2.1893
420.485
414.399
410.207
404.724
399.962
395.123
390.523
385.97
381.512
377.106
372.752
368.435
364.151
359.892
355.653
351.432
347.223
343.026
338.837
334.655
330.478
326.306
322.137
317.972
313.808
309.646
305.486
301.326
297.168
293.01
288.852
284.695
280.538
276.382
272.226
268.069
263.913
259.757
255.601
251.445
247.29
243.134
238.978
234.822
230.666
226.51
222.355
218.199
214.043
209.887
205.731
201.576
197.42
193.264
189.108
184.952
180.796
176.64
172.485
168.329
164.173
160.017
155.861
151.705
147.55
143.394
139.238
135.082
130.926
126.77
122.614
118.459
114.303
110.147
105.991
101.835
97.6792
93.5234
89.3675
85.2117
81.0558
76.9
72.7442
68.5884
64.4326
60.277
56.1214
51.966
47.8108
43.656
39.5017
35.3483
31.196
27.0456
22.8977
18.7541
14.615
10.4861
6.34781
2.19153
420.485
414.399
410.207
404.724
399.962
395.123
390.523
385.97
381.512
377.106
372.752
368.435
364.151
359.892
355.653
351.432
347.223
343.026
338.837
334.655
330.478
326.306
322.137
317.972
313.808
309.646
305.486
301.326
297.168
293.01
288.852
284.695
280.538
276.382
272.226
268.069
263.913
259.757
255.601
251.445
247.29
243.134
238.978
234.822
230.666
226.51
222.355
218.199
214.043
209.887
205.731
201.576
197.42
193.264
189.108
184.952
180.796
176.641
172.485
168.329
164.173
160.017
155.861
151.705
147.55
143.394
139.238
135.082
130.926
126.77
122.614
118.459
114.303
110.147
105.991
101.835
97.6792
93.5234
89.3675
85.2116
81.0558
76.9
72.7442
68.5884
64.4326
60.277
56.1214
51.966
47.8108
43.656
39.5017
35.3483
31.196
27.0456
22.8977
18.7541
14.615
10.4861
6.34781
2.19153
420.498
414.397
410.203
404.72
399.959
395.12
390.52
385.967
381.51
377.103
372.749
368.432
364.148
359.889
355.651
351.429
347.221
343.023
338.834
334.652
330.475
326.303
322.135
317.969
313.805
309.643
305.483
301.323
297.165
293.007
288.85
284.692
280.536
276.379
272.223
268.067
263.911
259.755
255.599
251.443
247.287
243.131
238.975
234.819
230.664
226.508
222.352
218.196
214.04
209.885
205.729
201.573
197.417
193.261
189.105
184.95
180.794
176.638
172.482
168.326
164.17
160.014
155.859
151.703
147.547
143.391
139.235
135.079
130.923
126.768
122.612
118.456
114.3
110.144
105.988
101.832
97.6765
93.5207
89.3648
85.2089
81.0531
76.8973
72.7415
68.5857
64.4299
60.2743
56.1187
51.9633
47.8081
43.6533
39.4991
35.3456
31.1933
27.0429
22.895
18.7514
14.6123
10.4832
6.34516
2.1893
420.524
414.394
410.194
404.712
399.953
395.115
390.515
385.961
381.504
377.098
372.744
368.427
364.143
359.884
355.645
351.424
347.215
343.018
338.829
334.647
330.47
326.298
322.129
317.964
313.8
309.638
305.478
301.318
297.159
293.002
288.844
284.687
280.53
276.374
272.218
268.061
263.905
259.749
255.593
251.437
247.282
243.126
238.97
234.814
230.658
226.502
222.347
218.191
214.035
209.879
205.723
201.567
197.412
193.256
189.1
184.944
180.788
176.632
172.477
168.321
164.165
160.009
155.853
151.697
147.541
143.386
139.23
135.074
130.918
126.762
122.606
118.45
114.295
110.139
105.983
101.827
97.6711
93.5153
89.3594
85.2035
81.0477
76.8919
72.7361
68.5803
64.4245
60.2689
56.1133
51.9579
47.8027
43.6479
39.4937
35.3402
31.1879
27.0375
22.8896
18.746
14.6069
10.4776
6.33986
2.18483
420.563
414.389
410.181
404.701
399.944
395.107
390.506
385.953
381.496
377.089
372.735
368.419
364.135
359.875
355.637
351.415
347.207
343.009
338.82
334.638
330.462
326.29
322.121
317.955
313.792
309.63
305.469
301.31
297.151
292.993
288.836
284.679
280.522
276.366
272.209
268.053
263.897
259.741
255.585
251.429
247.273
243.118
238.962
234.806
230.65
226.494
222.338
218.183
214.027
209.871
205.715
201.559
197.404
193.248
189.092
184.936
180.78
176.624
172.468
168.313
164.157
160.001
155.845
151.689
147.533
143.378
139.222
135.066
130.91
126.754
122.598
118.442
114.287
110.131
105.975
101.819
97.663
93.5072
89.3513
85.1955
81.0396
76.8838
72.728
68.5722
64.4164
60.2608
56.1052
51.9498
47.7946
43.6398
39.4856
35.3321
31.1798
27.0294
22.8815
18.7378
14.5987
10.4691
6.3319
2.17813
420.617
414.382
410.164
404.685
399.932
395.096
390.496
385.942
381.485
377.079
372.725
368.408
364.124
359.865
355.626
351.405
347.196
342.999
338.81
334.628
330.451
326.279
322.11
317.945
313.781
309.619
305.459
301.299
297.141
292.983
288.825
284.668
280.511
276.355
272.199
268.042
263.886
259.73
255.574
251.419
247.263
243.107
238.951
234.795
230.639
226.483
222.328
218.172
214.016
209.86
205.704
201.549
197.393
193.237
189.081
184.925
180.769
176.614
172.458
168.302
164.146
159.99
155.834
151.678
147.523
143.367
139.211
135.055
130.899
126.743
122.587
118.432
114.276
110.12
105.964
101.808
97.6522
93.4964
89.3405
85.1847
81.0288
76.873
72.7172
68.5614
64.4057
60.25
56.0944
51.939
47.7839
43.629
39.4748
35.3213
31.1691
27.0186
22.8707
18.727
14.5879
10.4577
6.32131
2.16919
420.684
414.372
410.143
404.666
399.917
395.083
390.482
385.929
381.471
377.065
372.711
368.394
364.11
359.851
355.613
351.391
347.183
342.985
338.796
334.614
330.438
326.266
322.097
317.931
313.768
309.606
305.445
301.286
297.127
292.969
288.812
284.655
280.498
276.341
272.185
268.029
263.873
259.717
255.561
251.405
247.249
243.093
238.937
234.782
230.626
226.47
222.314
218.158
214.003
209.847
205.691
201.535
197.379
193.223
189.068
184.912
180.756
176.6
172.444
168.288
164.132
159.977
155.821
151.665
147.509
143.353
139.197
135.042
130.886
126.73
122.574
118.418
114.262
110.106
105.95
101.795
97.6387
93.4829
89.327
85.1712
81.0153
76.8595
72.7037
68.5479
64.3922
60.2365
56.0809
51.9255
47.7704
43.6156
39.4613
35.3078
31.1556
27.0052
22.8572
18.7135
14.5743
10.4436
6.30807
2.15801
420.767
414.359
410.116
404.643
399.899
395.066
390.466
385.912
381.455
377.048
372.694
368.378
364.094
359.835
355.596
351.375
347.166
342.969
338.78
334.598
330.421
326.249
322.081
317.915
313.751
309.589
305.429
301.27
297.111
292.953
288.796
284.639
280.482
276.325
272.169
268.013
263.857
259.701
255.545
251.389
247.233
243.077
238.921
234.765
230.61
226.454
222.298
218.142
213.986
209.831
205.675
201.519
197.363
193.207
189.051
184.896
180.74
176.584
172.428
168.272
164.116
159.96
155.805
151.649
147.493
143.337
139.181
135.025
130.869
126.714
122.558
118.402
114.246
110.09
105.934
101.778
97.6225
93.4667
89.3108
85.155
80.9991
76.8433
72.6875
68.5317
64.376
60.2203
56.0647
51.9093
47.7542
43.5994
39.4451
35.2917
31.1394
26.989
22.8411
18.6973
14.5581
10.4267
6.2922
2.14457
420.867
414.343
410.086
404.616
399.878
395.047
390.446
385.893
381.436
377.029
372.675
368.359
364.075
359.816
355.577
351.356
347.147
342.95
338.761
334.579
330.403
326.23
322.062
317.896
313.732
309.571
305.41
301.251
297.092
292.934
288.777
284.62
280.463
276.306
272.15
267.994
263.838
259.682
255.526
251.37
247.214
243.058
238.902
234.747
230.591
226.435
222.279
218.123
213.967
209.812
205.656
201.5
197.344
193.188
189.033
184.877
180.721
176.565
172.409
168.253
164.097
159.942
155.786
151.63
147.474
143.318
139.162
135.006
130.851
126.695
122.539
118.383
114.227
110.071
105.915
101.76
97.6037
93.4478
89.2919
85.1361
80.9802
76.8244
72.6686
68.5128
64.3571
60.2014
56.0459
51.8905
47.7353
43.5805
39.4262
35.2728
31.1205
26.9701
22.8222
18.6783
14.5391
10.407
6.2737
2.12887
420.984
414.321
410.05
404.586
399.853
395.025
390.424
385.871
381.413
377.007
372.653
368.337
364.053
359.794
355.556
351.334
347.126
342.928
338.739
334.557
330.381
326.209
322.04
317.874
313.711
309.549
305.389
301.229
297.07
292.913
288.755
284.598
280.441
276.285
272.128
267.972
263.816
259.66
255.504
251.348
247.192
243.037
238.881
234.725
230.569
226.413
222.258
218.102
213.946
209.79
205.634
201.478
197.323
193.167
189.011
184.855
180.699
176.543
172.388
168.232
164.076
159.92
155.764
151.608
147.452
143.297
139.141
134.985
130.829
126.673
122.517
118.361
114.206
110.05
105.894
101.738
97.5821
93.4262
89.2703
85.1145
80.9586
76.8028
72.647
68.4912
64.3355
60.1798
56.0243
51.8689
47.7137
43.5589
39.4046
35.2512
31.099
26.9485
22.8007
18.6567
14.5175
10.3846
6.25258
2.11089
421.12
414.295
410.01
404.552
399.826
395.001
390.399
385.846
381.389
376.982
372.629
368.312
364.028
359.769
355.531
351.31
347.101
342.904
338.715
334.533
330.357
326.185
322.016
317.85
313.687
309.525
305.364
301.205
297.046
292.888
288.731
284.574
280.417
276.261
272.104
267.948
263.792
259.636
255.48
251.324
247.168
243.012
238.857
234.701
230.545
226.389
222.233
218.077
213.922
209.766
205.61
201.454
197.298
193.142
188.987
184.831
180.675
176.519
172.363
168.207
164.052
159.896
155.74
151.584
147.428
143.272
139.116
134.961
130.805
126.649
122.493
118.337
114.181
110.025
105.87
101.714
97.5578
93.4019
89.2461
85.0902
80.9344
76.7785
72.6227
68.4669
64.3112
60.1556
56
51.8446
47.6894
43.5346
39.3804
35.2269
31.0747
26.9243
22.7764
18.6324
14.4931
10.3594
6.22885
2.09062
421.276
414.261
409.965
404.514
399.795
394.973
390.371
385.819
381.361
376.955
372.601
368.285
364.001
359.742
355.504
351.282
347.074
342.877
338.688
334.506
330.33
326.158
321.989
317.823
313.66
309.498
305.337
301.178
297.019
292.861
288.704
284.547
280.39
276.234
272.077
267.921
263.765
259.609
255.453
251.297
247.141
242.985
238.83
234.674
230.518
226.362
222.206
218.05
213.895
209.739
205.583
201.427
197.271
193.115
188.96
184.804
180.648
176.492
172.336
168.18
164.025
159.869
155.713
151.557
147.401
143.245
139.089
134.934
130.778
126.622
122.466
118.31
114.154
109.998
105.843
101.687
97.5308
93.3749
89.2191
85.0632
80.9074
76.7515
72.5957
68.44
64.2842
60.1286
55.973
51.8176
47.6625
43.5077
39.3534
35.2
31.0477
26.8973
22.7495
18.6054
14.4661
10.3316
6.2025
2.06802
421.456
414.22
409.914
404.474
399.762
394.943
390.341
385.788
381.33
376.924
372.571
368.255
363.971
359.712
355.474
351.253
347.044
342.847
338.658
334.476
330.3
326.128
321.959
317.793
313.63
309.468
305.308
301.148
296.99
292.832
288.674
284.517
280.36
276.204
272.048
267.891
263.735
259.579
255.423
251.267
247.112
242.956
238.8
234.644
230.488
226.332
222.177
218.021
213.865
209.709
205.553
201.398
197.242
193.086
188.93
184.774
180.618
176.462
172.307
168.151
163.995
159.839
155.683
151.527
147.371
143.216
139.06
134.904
130.748
126.592
122.436
118.28
114.125
109.969
105.813
101.657
97.5011
93.3453
89.1894
85.0336
80.8777
76.7219
72.5661
68.4103
64.2546
60.0989
55.9434
51.788
47.6328
43.478
39.3237
35.1703
31.0181
26.8677
22.7199
18.5757
14.4363
10.3011
6.17356
2.04309
421.661
414.168
409.86
404.431
399.725
394.909
390.307
385.755
381.297
376.891
372.538
368.222
363.938
359.679
355.441
351.22
347.012
342.815
338.626
334.444
330.267
326.095
321.927
317.761
313.598
309.436
305.275
301.116
296.957
292.799
288.642
284.485
280.328
276.172
272.015
267.859
263.703
259.547
255.391
251.235
247.079
242.923
238.768
234.612
230.456
226.3
222.144
217.989
213.833
209.677
205.521
201.365
197.209
193.054
188.898
184.742
180.586
176.43
172.274
168.118
163.963
159.807
155.651
151.495
147.339
143.183
139.027
134.872
130.716
126.56
122.404
118.248
114.092
109.936
105.781
101.625
97.4688
93.313
89.1571
85.0013
80.8454
76.6896
72.5338
68.378
64.2223
60.0666
55.9111
51.7557
47.6005
43.4457
39.2915
35.138
30.9858
26.8354
22.6876
18.5434
14.404
10.268
6.1421
2.01584
421.897
414.105
409.8
404.385
399.685
394.873
390.27
385.719
381.261
376.856
372.502
368.186
363.903
359.644
355.406
351.185
346.977
342.78
338.591
334.409
330.233
326.061
321.892
317.726
313.563
309.401
305.241
301.081
296.923
292.765
288.607
284.45
280.293
276.137
271.981
267.824
263.668
259.512
255.356
251.2
247.045
242.889
238.733
234.577
230.421
226.265
222.11
217.954
213.798
209.642
205.486
201.331
197.175
193.019
188.863
184.707
180.551
176.395
172.24
168.084
163.928
159.772
155.616
151.46
147.304
143.149
138.993
134.837
130.681
126.525
122.369
118.213
114.058
109.902
105.746
101.59
97.4342
93.2783
89.1224
84.9666
80.8107
76.6549
72.4991
68.3433
64.1876
60.0319
55.8764
51.721
47.5658
43.4111
39.2568
35.1034
30.9512
26.8008
22.653
18.5087
14.3692
10.2327
6.10833
1.98643
422.168
414.027
409.737
404.337
399.642
394.834
390.231
385.681
381.222
376.818
372.464
368.149
363.865
359.607
355.369
351.148
346.94
342.743
338.554
334.372
330.196
326.024
321.855
317.69
313.526
309.364
305.204
301.045
296.886
292.728
288.571
284.413
280.257
276.1
271.944
267.788
263.632
259.476
255.32
251.164
247.008
242.852
238.696
234.54
230.385
226.229
222.073
217.917
213.761
209.606
205.45
201.294
197.138
192.982
188.826
184.671
180.515
176.359
172.203
168.047
163.891
159.735
155.58
151.424
147.268
143.112
138.956
134.8
130.644
126.489
122.333
118.177
114.021
109.865
105.709
101.553
97.3975
93.2416
89.0858
84.9299
80.7741
76.6182
72.4624
68.3067
64.1509
59.9953
55.8397
51.6843
47.5292
43.3744
39.2202
35.0668
30.9146
26.7642
22.6164
18.472
14.3325
10.1954
6.07249
1.95502
422.473
413.932
409.67
404.287
399.597
394.793
390.19
385.64
381.182
376.778
372.425
368.109
363.826
359.568
355.33
351.109
346.901
342.704
338.516
334.334
330.158
325.986
321.817
317.651
313.488
309.326
305.166
301.006
296.848
292.69
288.532
284.375
280.218
276.062
271.906
267.749
263.593
259.437
255.281
251.125
246.97
242.814
238.658
234.502
230.346
226.19
222.035
217.879
213.723
209.567
205.411
201.255
197.1
192.944
188.788
184.632
180.476
176.32
172.165
168.009
163.853
159.697
155.541
151.385
147.229
143.074
138.918
134.762
130.606
126.45
122.294
118.138
113.983
109.827
105.671
101.515
97.3591
93.2033
89.0474
84.8916
80.7357
76.5799
72.4241
68.2683
64.1126
59.9569
55.8014
51.646
47.4908
43.3361
39.1818
35.0284
30.8762
26.7259
22.5781
18.4337
14.2941
10.1566
6.03478
1.92175
422.811
413.821
409.606
404.241
399.554
394.754
390.151
385.602
381.144
376.74
372.387
368.072
363.789
359.531
355.293
351.072
346.865
342.668
338.479
334.297
330.121
325.949
321.781
317.615
313.451
309.29
305.129
300.97
296.811
292.653
288.496
284.339
280.182
276.025
271.869
267.713
263.557
259.401
255.245
251.089
246.933
242.777
238.622
234.466
230.31
226.154
221.998
217.842
213.687
209.531
205.375
201.219
197.063
192.907
188.752
184.596
180.44
176.284
172.128
167.972
163.816
159.661
155.505
151.349
147.193
143.037
138.881
134.725
130.57
126.414
122.258
118.102
113.946
109.79
105.634
101.479
97.3227
93.1669
89.011
84.8552
80.6993
76.5435
72.3877
68.2319
64.0762
59.9205
55.765
51.6096
47.4545
43.2997
39.1454
34.9921
30.8399
26.6895
22.5418
18.3973