/*--------------------------------*- C++ -*----------------------------------*\
| =========                 |                                                 |
| \\      /  F ield         | OpenFOAM: The Open Source CFD Toolbox           |
|  \\    /   O peration     | Version:  2.3.0                                 |
|   \\  /    A nd           | Web:      www.OpenFOAM.org                      |
|    \\/     M anipulation  |                                                 |
\*---------------------------------------------------------------------------*/
FoamFile
{
    version     2.0;
    format      ascii;
    class       volScalarField;
    location    "1.5";
    object      pB;
}
// * * * * * * * * * * * * * * * * * * * * * * * * * * * * * * * * * * * * * //

dimensions      [1 1 -3 0 0 -1 0];

internalField   nonuniform List<scalar> 
4000
(
25.6436
55.5746
70.9458
75.9262
74.9831
70.1931
63.4986
56.0141
48.5077
41.3964
34.913
29.1524
24.1328
19.8231
16.1665
13.0939
10.5331
8.41353
6.66982
5.24303
4.08118
3.13925
2.37872
1.76695
1.27664
0.884959
0.573107
0.32554
0.129606
-0.0250332
-0.146753
-0.242309
-0.317134
-0.3756
-0.421155
-0.456604
-0.484094
-0.5054
-0.521853
-0.534552
-0.544322
-0.551834
-0.55759
-0.562007
-0.565369
-0.567948
-0.569892
-0.571387
-0.572504
-0.57336
-0.573998
-0.574488
-0.574843
-0.575122
-0.575317
-0.575471
-0.575567
-0.575647
-0.575683
-0.575712
-0.575711
-0.575705
-0.575675
-0.575648
-0.575594
-0.575543
-0.575463
-0.575378
-0.575252
-0.575107
-0.574896
-0.574634
-0.574267
-0.573788
-0.573137
-0.572274
-0.57111
-0.569562
-0.56749
-0.564741
-0.561085
-0.55626
-0.549894
-0.541558
-0.530679
-0.516609
-0.498543
-0.475615
-0.446887
-0.411529
-0.368998
-0.319488
-0.264546
-0.208171
-0.158338
-0.128658
-0.138201
-0.20276
-0.299735
-0.29841
27.4895
55.5596
70.3027
75.2358
74.3263
69.6251
63.0153
55.6109
48.1738
41.1232
34.6917
28.9756
23.9935
19.7151
16.0847
13.0339
10.4909
8.38586
6.65398
5.23674
4.08257
3.14678
2.39115
1.78327
1.29604
0.906768
0.596812
0.350724
0.155943
0.00219717
-0.118831
-0.213855
-0.28827
-0.346423
-0.391736
-0.427003
-0.454353
-0.475554
-0.491926
-0.504564
-0.514287
-0.521765
-0.527494
-0.531893
-0.535238
-0.537808
-0.539743
-0.541233
-0.542344
-0.543198
-0.543832
-0.544321
-0.544674
-0.544952
-0.545145
-0.545299
-0.545394
-0.545474
-0.545509
-0.545539
-0.545537
-0.545533
-0.545501
-0.545476
-0.545422
-0.545372
-0.545291
-0.545207
-0.545081
-0.544937
-0.544727
-0.544466
-0.5441
-0.543625
-0.542975
-0.542117
-0.540958
-0.539419
-0.537358
-0.534624
-0.530987
-0.52619
-0.51986
-0.511574
-0.50076
-0.486779
-0.468831
-0.446061
-0.417544
-0.382465
-0.340301
-0.291261
-0.23689
-0.181132
-0.131736
-0.101637
-0.108214
-0.163657
-0.243159
-0.236154
28.5967
55.4263
69.4148
74.219
73.322
68.7241
62.2295
54.9414
47.6108
40.6561
34.309
28.6661
23.7468
19.5218
15.9362
12.9227
10.4107
8.33111
6.62002
5.21968
4.07918
3.15439
2.40757
1.80671
1.32506
0.940199
0.63372
0.390363
0.19772
0.0456414
-0.0740898
-0.168109
-0.241745
-0.2993
-0.344151
-0.379065
-0.406142
-0.427137
-0.443351
-0.455869
-0.4655
-0.47291
-0.478584
-0.482945
-0.486259
-0.488807
-0.490725
-0.492202
-0.493304
-0.494152
-0.494778
-0.495264
-0.495614
-0.49589
-0.496079
-0.496233
-0.496327
-0.496406
-0.49644
-0.49647
-0.496467
-0.496464
-0.496432
-0.496408
-0.496354
-0.496305
-0.496224
-0.496141
-0.496016
-0.495873
-0.495665
-0.495407
-0.495044
-0.494574
-0.493929
-0.493081
-0.491932
-0.490411
-0.48837
-0.485666
-0.482068
-0.477323
-0.471063
-0.462869
-0.452178
-0.438359
-0.420625
-0.398135
-0.369981
-0.335372
-0.293803
-0.245489
-0.191951
-0.136992
-0.087962
-0.0567233
-0.0583885
-0.100944
-0.159788
-0.14615
28.7092
54.8888
68.1305
72.742
71.8481
67.3776
61.0394
53.9145
46.7371
39.9224
33.6996
28.1655
23.34
19.1948
15.6766
12.7195
10.2542
8.21318
6.53365
5.15901
4.03933
3.13132
2.39798
1.80789
1.33481
0.956738
0.655623
0.416488
0.227157
0.0776689
-0.0400427
-0.132494
-0.204912
-0.261529
-0.305653
-0.34001
-0.366659
-0.387325
-0.403288
-0.415616
-0.4251
-0.4324
-0.437988
-0.442286
-0.44555
-0.448063
-0.449954
-0.451411
-0.452497
-0.453333
-0.45395
-0.45443
-0.454774
-0.455046
-0.455231
-0.455384
-0.455475
-0.455553
-0.455585
-0.455616
-0.455611
-0.45561
-0.455578
-0.455554
-0.455502
-0.455455
-0.455374
-0.455292
-0.455169
-0.455027
-0.454822
-0.454568
-0.45421
-0.453748
-0.453113
-0.452278
-0.451148
-0.449652
-0.447644
-0.444987
-0.44145
-0.436787
-0.430635
-0.422585
-0.412085
-0.398515
-0.381106
-0.35904
-0.331432
-0.297518
-0.256816
-0.20954
-0.157151
-0.10323
-0.0545241
-0.0214262
-0.0162155
-0.0423209
-0.0773086
-0.0537969
28.0634
53.8429
66.4253
70.8131
69.9212
65.5994
59.4557
52.5378
45.5586
38.9266
32.8671
27.4764
22.7748
18.7355
15.3067
12.4244
10.0213
8.03165
6.39421
5.05389
3.96205
3.07652
2.36123
1.78559
1.32403
0.955101
0.661215
0.427781
0.242931
0.0969514
-0.0180204
-0.10834
-0.179102
-0.234437
-0.27757
-0.311163
-0.337225
-0.357441
-0.373059
-0.385124
-0.394406
-0.401553
-0.407023
-0.411232
-0.414429
-0.416891
-0.418744
-0.420173
-0.421237
-0.422058
-0.422661
-0.423131
-0.423468
-0.423734
-0.423915
-0.424064
-0.424153
-0.424229
-0.424259
-0.42429
-0.424284
-0.424284
-0.424253
-0.42423
-0.424178
-0.424133
-0.424053
-0.423973
-0.423851
-0.423713
-0.423512
-0.423263
-0.422912
-0.422461
-0.421839
-0.421023
-0.419918
-0.418457
-0.416495
-0.4139
-0.410446
-0.405894
-0.399889
-0.392033
-0.381789
-0.368553
-0.35158
-0.330077
-0.30319
-0.270188
-0.230609
-0.18466
-0.133712
-0.0810393
-0.0326304
0.00287667
0.0163176
0.00863748
-0.00110882
0.0318519
26.9446
52.289
64.2937
68.4502
67.5653
63.4126
57.4986
50.8291
44.0911
37.6826
31.824
26.6101
22.0617
18.1534
14.8354
12.046
9.72013
7.7942
6.20909
4.91147
3.85431
2.99678
2.30404
1.74645
1.29929
0.941816
0.656999
0.430724
0.251505
0.109941
-0.00157821
-0.0892065
-0.157876
-0.211587
-0.253465
-0.286088
-0.311403
-0.331046
-0.346224
-0.357952
-0.366976
-0.373926
-0.379245
-0.38334
-0.386451
-0.388848
-0.390652
-0.392044
-0.39308
-0.393879
-0.394466
-0.394924
-0.395251
-0.39551
-0.395685
-0.39583
-0.395915
-0.395988
-0.396017
-0.396046
-0.39604
-0.39604
-0.39601
-0.395988
-0.395938
-0.395894
-0.395816
-0.395737
-0.395619
-0.395484
-0.395289
-0.395046
-0.394705
-0.394266
-0.393662
-0.39287
-0.391796
-0.390379
-0.388475
-0.385959
-0.38261
-0.378197
-0.372376
-0.364764
-0.35484
-0.342022
-0.325591
-0.304785
-0.278788
-0.246902
-0.20869
-0.164339
-0.1151
-0.0638825
-0.0157989
0.022427
0.0447953
0.0561844
0.071599
0.110548
25.5317
50.2662
61.7414
65.6698
64.8014
60.8379
55.1865
48.8044
42.348
36.2022
30.5804
25.5756
21.2084
17.4553
14.2687
11.5894
9.35523
7.50505
5.98214
4.73532
3.71943
2.89528
2.22941
1.69337
1.26342
0.919643
0.645688
0.427995
0.255532
0.119273
0.0119074
-0.0724792
-0.138624
-0.190375
-0.230733
-0.262182
-0.286591
-0.305536
-0.320178
-0.331496
-0.340205
-0.346914
-0.352049
-0.356004
-0.359009
-0.361326
-0.36307
-0.364416
-0.365418
-0.366191
-0.366758
-0.3672
-0.367515
-0.367766
-0.367933
-0.368072
-0.368153
-0.368223
-0.368249
-0.368277
-0.36827
-0.368271
-0.368243
-0.368222
-0.368174
-0.368131
-0.368056
-0.367979
-0.367865
-0.367734
-0.367544
-0.36731
-0.36698
-0.366557
-0.365973
-0.36521
-0.364175
-0.36281
-0.360976
-0.358554
-0.355331
-0.351085
-0.345485
-0.338164
-0.328622
-0.316303
-0.300517
-0.280539
-0.255593
-0.225019
-0.188402
-0.145902
-0.0986289
-0.049079
-0.00142845
0.0395601
0.0709271
0.10094
0.140013
0.180551
23.9317
47.8273
58.7836
62.4899
61.6498
57.8952
52.5371
46.4786
40.3423
34.4961
29.1454
24.3801
20.2211
16.6462
13.6106
11.0581
8.92943
7.16648
5.71524
4.52698
3.55869
2.77306
2.13823
1.6271
1.21706
0.889143
0.627776
0.420041
0.255426
0.125336
0.0228066
-0.0578007
-0.120998
-0.170458
-0.209038
-0.239109
-0.262455
-0.280578
-0.294589
-0.305422
-0.31376
-0.320185
-0.325102
-0.328891
-0.33177
-0.333992
-0.335665
-0.336956
-0.337918
-0.33866
-0.339203
-0.339626
-0.339927
-0.340167
-0.340326
-0.340458
-0.340533
-0.340599
-0.340623
-0.340649
-0.340642
-0.340644
-0.340617
-0.340597
-0.340551
-0.34051
-0.340437
-0.340363
-0.340253
-0.340127
-0.339944
-0.33972
-0.339403
-0.338998
-0.33844
-0.337709
-0.336719
-0.335414
-0.333662
-0.33135
-0.328273
-0.324221
-0.318877
-0.311893
-0.302794
-0.291051
-0.276009
-0.256984
-0.233243
-0.204166
-0.169359
-0.128949
-0.0838875
-0.036236
0.0107855
0.0543169
0.0941788
0.141375
0.20129
0.239408
22.2115
45.0288
55.4439
58.9314
58.1317
54.6053
49.569
43.8682
38.0875
32.5759
27.5285
23.0318
19.1063
15.7316
12.8657
10.4557
8.4456
6.78077
5.41019
4.28786
3.3732
2.631
2.03117
1.54815
1.1606
0.850615
0.603489
0.407029
0.251312
0.128224
0.0311892
-0.0451188
-0.10496
-0.151807
-0.188356
-0.216852
-0.23898
-0.256162
-0.269448
-0.279723
-0.287632
-0.29373
-0.298397
-0.301994
-0.304729
-0.30684
-0.30843
-0.309658
-0.310573
-0.311278
-0.311794
-0.312195
-0.31248
-0.312707
-0.312856
-0.31298
-0.313049
-0.313111
-0.313131
-0.313156
-0.313149
-0.31315
-0.313125
-0.313107
-0.313062
-0.313023
-0.312954
-0.312883
-0.312777
-0.312657
-0.312483
-0.312269
-0.311967
-0.311583
-0.311053
-0.31036
-0.309421
-0.308185
-0.306526
-0.304337
-0.301426
-0.297593
-0.29254
-0.285938
-0.277338
-0.266244
-0.252041
-0.234087
-0.211696
-0.184288
-0.151492
-0.113397
-0.0707884
-0.025289
0.0208111
0.0664078
0.113735
0.175784
0.252754
0.285422
20.4131
41.9246
51.7521
55.0185
54.2705
50.9905
46.3025
40.9907
35.599
30.4543
25.7405
21.5395
17.8714
14.7175
12.0388
9.78602
7.90696
6.35052
5.06907
4.01962
3.16428
2.47012
1.90905
1.45717
1.09455
0.804453
0.573137
0.389207
0.243387
0.128095
0.0371842
-0.034327
-0.0904201
-0.134345
-0.168621
-0.195352
-0.216114
-0.232238
-0.244708
-0.254355
-0.261782
-0.26751
-0.271894
-0.275275
-0.277845
-0.279831
-0.281327
-0.282482
-0.283343
-0.284008
-0.284492
-0.284869
-0.285135
-0.285347
-0.285486
-0.2856
-0.285663
-0.285719
-0.285737
-0.285759
-0.285751
-0.285753
-0.28573
-0.285713
-0.28567
-0.285633
-0.285568
-0.285501
-0.2854
-0.285286
-0.28512
-0.284919
-0.284634
-0.284272
-0.283774
-0.283124
-0.282242
-0.281082
-0.279526
-0.277475
-0.274748
-0.27116
-0.266428
-0.260249
-0.252204
-0.241829
-0.228553
-0.211779
-0.190871
-0.165293
-0.134695
-0.0991255
-0.059206
-0.0161374
0.0286531
0.0756002
0.128909
0.202797
0.292459
0.317802
18.5623
38.5635
47.7408
50.778
50.0911
47.0745
42.7591
37.8651
32.8929
28.1452
23.7929
19.913
16.5244
13.6105
11.1353
9.05359
7.31707
5.87859
4.69417
3.7241
2.93337
2.29158
1.77278
1.35488
1.01948
0.751105
0.537074
0.366853
0.231872
0.125124
0.0409326
-0.0253109
-0.0772835
-0.117993
-0.149767
-0.174552
-0.193806
-0.208762
-0.220331
-0.229282
-0.236175
-0.241493
-0.245562
-0.248703
-0.25109
-0.252936
-0.254327
-0.255401
-0.256201
-0.25682
-0.257269
-0.257619
-0.257864
-0.25806
-0.258186
-0.25829
-0.258346
-0.258396
-0.25841
-0.25843
-0.258422
-0.258424
-0.258402
-0.258387
-0.258346
-0.258311
-0.25825
-0.258187
-0.258092
-0.257985
-0.257829
-0.257641
-0.257375
-0.257038
-0.256574
-0.25597
-0.255151
-0.254075
-0.252633
-0.250733
-0.248207
-0.244886
-0.240507
-0.234791
-0.22735
-0.217758
-0.20549
-0.189996
-0.170695
-0.147095
-0.118865
-0.08602
-0.0490222
-0.00868595
0.0343223
0.0817072
0.139162
0.221404
0.319159
0.33642
16.675
34.9877
43.4445
46.2388
45.6199
42.8821
38.9614
34.5114
29.9866
25.6633
21.6984
18.1626
15.074
12.4177
10.1612
8.26316
6.67979
5.3681
4.28799
3.40329
2.68208
2.09665
1.62336
1.24206
0.935997
0.691057
0.49568
0.340265
0.216999
0.119495
0.0425769
-0.0179585
-0.0654624
-0.102682
-0.131736
-0.154407
-0.172019
-0.185704
-0.19629
-0.204483
-0.210792
-0.215661
-0.219387
-0.222264
-0.224451
-0.226142
-0.227417
-0.228402
-0.229136
-0.229703
-0.230114
-0.230434
-0.230657
-0.230835
-0.230947
-0.23104
-0.231088
-0.231132
-0.231143
-0.23116
-0.231151
-0.231152
-0.231132
-0.231118
-0.23108
-0.231047
-0.23099
-0.230932
-0.230843
-0.230743
-0.230598
-0.230424
-0.230179
-0.229869
-0.229443
-0.228889
-0.228138
-0.227153
-0.225833
-0.224096
-0.221788
-0.218755
-0.214757
-0.209539
-0.202748
-0.193999
-0.182813
-0.168693
-0.151111
-0.129622
-0.103919
-0.073983
-0.0401345
-0.0028494
0.0378384
0.0846006
0.144121
0.230973
0.332237
0.341617
14.7611
31.2338
38.8974
41.431
40.8848
38.4393
34.9333
30.9509
26.8985
23.0245
19.4701
16.2995
13.5295
11.1468
9.12258
7.41983
5.99928
4.8224
3.85324
3.05935
2.41213
1.88671
1.46188
1.11959
0.844792
0.624845
0.449376
0.309773
0.199027
0.111408
0.042274
-0.0121477
-0.0548614
-0.0883372
-0.114472
-0.13487
-0.150717
-0.163034
-0.172562
-0.179937
-0.185616
-0.190002
-0.193356
-0.195948
-0.197917
-0.199442
-0.200591
-0.201479
-0.20214
-0.202651
-0.203021
-0.203308
-0.203506
-0.203665
-0.203763
-0.203844
-0.203883
-0.20392
-0.203928
-0.203942
-0.203932
-0.203933
-0.203914
-0.203901
-0.203866
-0.203836
-0.203783
-0.20373
-0.203647
-0.203556
-0.203422
-0.203264
-0.20304
-0.202759
-0.202372
-0.201872
-0.201194
-0.200306
-0.199118
-0.197556
-0.19548
-0.192754
-0.189162
-0.184475
-0.178378
-0.170525
-0.160488
-0.147825
-0.132064
-0.112807
-0.0897751
-0.0629199
-0.0324405
0.0014653
0.0392517
0.0842388
0.143613
0.231253
0.331654
0.334097
12.827
27.3333
34.1331
36.3859
35.9147
33.7734
30.6995
27.2055
23.648
20.2452
17.1221
14.3355
11.9005
9.80587
8.02618
6.52904
5.27996
4.24508
3.3928
2.69462
2.12538
1.66323
1.28952
0.988391
0.746609
0.553059
0.398627
0.275742
0.178241
0.101087
0.0402002
-0.00774045
-0.0453726
-0.0748736
-0.0979073
-0.115888
-0.129859
-0.140719
-0.149119
-0.155623
-0.16063
-0.164499
-0.167457
-0.169745
-0.171481
-0.172827
-0.17384
-0.174624
-0.175207
-0.175659
-0.175983
-0.176236
-0.176407
-0.176545
-0.176628
-0.176697
-0.176727
-0.176756
-0.17676
-0.176771
-0.176761
-0.17676
-0.176742
-0.176731
-0.176698
-0.176671
-0.176623
-0.176575
-0.176499
-0.176416
-0.176294
-0.176153
-0.175952
-0.175702
-0.175357
-0.174914
-0.174313
-0.173528
-0.172479
-0.171101
-0.169271
-0.166871
-0.163706
-0.159581
-0.154215
-0.147306
-0.138479
-0.127347
-0.113498
-0.0965827
-0.0763494
-0.0527317
-0.0258303
0.00436911
0.0386566
0.0806816
0.137675
0.222368
0.317881
0.314845
10.8773
23.3131
29.1842
31.1351
30.7396
28.9122
26.2856
23.2983
20.2549
17.3428
14.669
12.2829
10.1975
8.40339
6.87897
5.59651
4.52649
3.63992
2.90975
2.31157
1.82383
1.42782
1.10757
0.849488
0.642253
0.476337
0.343939
0.238571
0.154958
0.0887821
0.0365508
-0.00458317
-0.0368751
-0.0621962
-0.0819665
-0.0974038
-0.109397
-0.118722
-0.125933
-0.131517
-0.135815
-0.139137
-0.141676
-0.143641
-0.145131
-0.146287
-0.147157
-0.147831
-0.14833
-0.148718
-0.148994
-0.149211
-0.149354
-0.14947
-0.149536
-0.149592
-0.149613
-0.149635
-0.149634
-0.149642
-0.149631
-0.149629
-0.149612
-0.149602
-0.149572
-0.149547
-0.149504
-0.149462
-0.149392
-0.149319
-0.14921
-0.149085
-0.148909
-0.148691
-0.14839
-0.148007
-0.147487
-0.146811
-0.145907
-0.144723
-0.14315
-0.14109
-0.138374
-0.134836
-0.130234
-0.124312
-0.116748
-0.107213
-0.0953541
-0.0808751
-0.063554
-0.0433145
-0.0201846
0.00599356
0.036195
0.0740934
0.126548
0.204791
0.29183
0.285063
8.91533
19.1968
24.0819
25.7104
25.39
23.8846
21.7182
19.2529
16.7402
14.335
12.126
10.1544
8.43099
6.94822
5.68826
4.62822
3.74375
3.01089
2.4073
1.91279
1.50956
1.18215
0.917359
0.703953
0.532581
0.395361
0.285853
0.198691
0.129517
0.0747607
0.031538
-0.00250838
-0.0292366
-0.0502006
-0.0665674
-0.0793503
-0.0892787
-0.0969996
-0.102968
-0.107591
-0.111147
-0.113898
-0.115997
-0.117624
-0.118855
-0.119812
-0.120531
-0.121089
-0.121501
-0.121821
-0.122047
-0.122225
-0.122339
-0.122432
-0.122481
-0.122524
-0.122535
-0.122549
-0.122544
-0.122549
-0.122536
-0.122534
-0.122516
-0.122508
-0.122481
-0.122459
-0.12242
-0.122383
-0.122322
-0.122258
-0.122162
-0.122055
-0.121904
-0.121719
-0.121465
-0.121143
-0.120709
-0.120145
-0.119393
-0.118411
-0.117105
-0.115398
-0.113148
-0.110219
-0.10641
-0.10151
-0.0952544
-0.0873719
-0.0775717
-0.0656096
-0.0512981
-0.0345596
-0.0153751
0.00649105
0.0320562
0.0647406
0.110667
0.179309
0.25479
0.246126
6.94373
15.0053
18.8561
20.1438
19.8971
18.72
17.0242
15.0936
13.1252
11.2403
9.50892
7.96325
6.6121
5.44951
4.46158
3.63037
2.93681
2.36212
1.88879
1.50098
1.18476
0.927977
0.720303
0.552916
0.418495
0.310851
0.224941
0.156556
0.102279
0.0593097
0.0253886
-0.00133645
-0.0223152
-0.0387742
-0.0516206
-0.061657
-0.0694482
-0.0755083
-0.0801899
-0.0838167
-0.0866029
-0.0887601
-0.0904036
-0.0916798
-0.0926419
-0.0933925
-0.0939536
-0.0943913
-0.0947108
-0.0949614
-0.0951349
-0.0952729
-0.0953569
-0.0954254
-0.095457
-0.0954853
-0.0954871
-0.0954941
-0.0954841
-0.0954851
-0.095471
-0.0954677
-0.0954498
-0.0954424
-0.0954183
-0.0953997
-0.0953647
-0.0953339
-0.0952801
-0.0952264
-0.0951448
-0.0950563
-0.0949303
-0.0947803
-0.0945739
-0.0943164
-0.0939691
-0.0935224
-0.0929266
-0.0921519
-0.0911216
-0.0897786
-0.0880087
-0.0857074
-0.082715
-0.0788682
-0.0739575
-0.0677737
-0.0600877
-0.0507092
-0.0394879
-0.0263537
-0.011264
0.00603421
0.0264748
0.0529832
0.0906429
0.146979
0.208354
0.199536
4.96486
10.7572
13.5354
14.467
14.2923
13.4483
12.2312
10.8452
9.43155
8.07764
6.8337
5.72307
4.75216
3.91669
3.20671
2.60935
2.11089
1.69787
1.35768
1.07896
0.85168
0.667125
0.517864
0.397552
0.300936
0.223559
0.161805
0.112644
0.0736245
0.0427306
0.018342
-0.000877498
-0.0159602
-0.0277977
-0.0370314
-0.0442484
-0.0498451
-0.0541993
-0.0575584
-0.0601614
-0.0621565
-0.0637034
-0.0648775
-0.0657924
-0.066478
-0.0670155
-0.0674141
-0.0677274
-0.0679522
-0.0681307
-0.0682498
-0.0683466
-0.0683996
-0.0684436
-0.0684567
-0.0684708
-0.0684632
-0.0684626
-0.0684476
-0.068445
-0.0684292
-0.0684247
-0.0684064
-0.0683997
-0.0683784
-0.0683631
-0.0683323
-0.0683071
-0.0682614
-0.0682182
-0.068151
-0.0680812
-0.0679814
-0.067867
-0.0677097
-0.0675182
-0.0672603
-0.0669332
-0.0664974
-0.0659355
-0.0651876
-0.0642173
-0.0629384
-0.0612792
-0.0591216
-0.0563512
-0.0528149
-0.0483657
-0.0428375
-0.0360947
-0.0280272
-0.0185796
-0.0077059
0.00481395
0.0197255
0.039264
0.0672336
0.109086
0.154361
0.146899
2.9809
6.46975
8.14785
8.71158
8.60751
8.09985
7.36728
6.53278
5.68155
4.8661
4.11675
3.44765
2.86271
2.35934
1.93158
1.57166
1.27133
1.02247
0.817502
0.649577
0.512651
0.401466
0.311551
0.239071
0.180874
0.134262
0.0970645
0.0674505
0.0439477
0.0253371
0.0106475
-0.000933497
-0.0100143
-0.0171463
-0.0227005
-0.0270455
-0.0304063
-0.033022
-0.0350331
-0.0365923
-0.0377808
-0.0387052
-0.0394003
-0.0399464
-0.0403495
-0.0406696
-0.040902
-0.0410881
-0.0412161
-0.0413208
-0.0413841
-0.0414387
-0.0414602
-0.0414794
-0.0414738
-0.0414736
-0.0414564
-0.0414484
-0.0414283
-0.0414218
-0.0414041
-0.0413984
-0.0413797
-0.0413733
-0.0413546
-0.0413425
-0.0413161
-0.0412964
-0.041259
-0.0412266
-0.041174
-0.0411233
-0.0410503
-0.0409721
-0.0408648
-0.0407405
-0.0405738
-0.0403682
-0.0400952
-0.0397496
-0.0392889
-0.0386975
-0.0379174
-0.0369108
-0.0356013
-0.0339241
-0.0317833
-0.0290944
-0.0257552
-0.0216857
-0.0168176
-0.0111166
-0.00454801
0.00303658
0.0121166
0.0240931
0.0413183
0.067091
0.0948408
0.0898924
0.993908
2.15909
2.72036
2.90914
2.87461
2.70522
2.46062
2.18193
1.89761
1.62515
1.37469
1.15101
0.955504
0.787231
0.644252
0.523931
0.423541
0.340366
0.271867
0.215764
0.170033
0.132908
0.102901
0.0787089
0.0593029
0.0437532
0.0313552
0.0214831
0.0136533
0.00745144
0.00256153
-0.00130049
-0.00431545
-0.00669098
-0.00852552
-0.00996662
-0.0110665
-0.0119242
-0.0125719
-0.0130752
-0.0134477
-0.0137422
-0.0139526
-0.0141252
-0.0142425
-0.0143424
-0.0144063
-0.0144634
-0.0144933
-0.0145234
-0.0145302
-0.0145418
-0.0145314
-0.0145257
-0.0145014
-0.0144868
-0.0144601
-0.014445
-0.0144198
-0.0144093
-0.0143893
-0.0143823
-0.0143631
-0.0143569
-0.0143404
-0.0143315
-0.0143095
-0.0142954
-0.0142662
-0.0142447
-0.014207
-0.0141757
-0.0141296
-0.0140883
-0.0140316
-0.0139753
-0.0139006
-0.013818
-0.0137092
-0.0135821
-0.0134116
-0.0132027
-0.0129262
-0.0125783
-0.0121248
-0.0115511
-0.0108186
-0.00990555
-0.00877406
-0.00740057
-0.0057595
-0.00384135
-0.00163255
0.000920016
0.00398172
0.00803063
0.0138634
0.0225833
0.0319513
0.0302446
-0.994087
-2.15924
-2.72038
-2.90898
-2.87433
-2.70482
-2.46029
-2.18178
-1.89766
-1.62562
-1.37577
-1.15271
-0.957642
-0.789814
-0.647157
-0.527148
-0.426993
-0.343982
-0.275592
-0.219529
-0.173783
-0.136619
-0.10653
-0.0822811
-0.0627733
-0.0471598
-0.0346778
-0.0247429
-0.0168475
-0.0105987
-0.00565519
-0.00177097
0.00130142
0.00369937
0.0055981
0.00707159
0.00824088
0.00914758
0.00986848
0.010425
0.0108715
0.0112091
0.0114853
0.0116876
0.0118575
0.0119786
0.0120841
0.0121566
0.0122253
0.01227
0.0123201
0.0123517
0.0123941
0.0124245
0.0124672
0.0124962
0.0125325
0.0125546
0.0125848
0.0125994
0.0126219
0.0126304
0.0126499
0.0126561
0.0126708
0.0126767
0.0126942
0.0127026
0.0127236
0.0127342
0.012757
0.0127687
0.0127875
0.0127919
0.0127977
0.0127857
0.012768
0.0127271
0.0126712
0.0125791
0.0124585
0.0122836
0.012055
0.0117423
0.0113372
0.0108039
0.0101238
0.00925574
0.00817323
0.00684314
0.00524787
0.0033708
0.00120155
-0.0013106
-0.00433038
-0.00833249
-0.0141106
-0.0227705
-0.0320698
-0.0302868
-2.98107
-6.46989
-8.14787
-8.71142
-8.60723
-8.09945
-7.36696
-6.53265
-5.68161
-4.86659
-4.11785
-3.44936
-2.86486
-2.36193
-1.93449
-1.57488
-1.27478
-1.02609
-0.821225
-0.65334
-0.516399
-0.405176
-0.315179
-0.242642
-0.184344
-0.137668
-0.100386
-0.0707097
-0.0471413
-0.0284838
-0.0137403
-0.00213625
0.00700231
0.0141568
0.0197754
0.0241529
0.0275829
0.0302472
0.0323313
0.0339434
0.0352055
0.0361727
0.0369333
0.037509
0.0379649
0.0383061
0.0385803
0.0387819
0.0389487
0.0390681
0.0391747
0.0392494
0.0393237
0.0393785
0.0394392
0.0394822
0.039528
0.0395569
0.0395921
0.0396108
0.0396361
0.0396461
0.0396661
0.0396723
0.0396856
0.0396887
0.0397017
0.0397044
0.0397173
0.0397171
0.0397249
0.0397169
0.0397085
0.0396758
0.0396309
0.0395508
0.0394409
0.039277
0.0390567
0.0387464
0.0383357
0.0377781
0.0370461
0.036075
0.034814
0.0331772
0.0310884
0.0284444
0.0251542
0.021128
0.0163055
0.0106453
0.00411648
-0.00342768
-0.0124655
-0.024395
-0.0415655
-0.067278
-0.0949589
-0.0899344
-4.96502
-10.7573
-13.5354
-14.4668
-14.292
-13.4479
-12.2309
-10.8451
-9.43164
-8.07816
-6.83482
-5.72479
-4.75432
-3.91929
-3.20963
-2.61257
-2.11435
-1.70148
-1.3614
-1.08272
-0.855425
-0.670832
-0.521489
-0.401122
-0.304405
-0.226965
-0.165126
-0.115902
-0.0768171
-0.0458763
-0.0214331
-0.00218889
0.0129522
0.0248125
0.0341108
0.0413605
0.0470262
0.0514282
0.0548597
0.057515
0.0595829
0.061172
0.0624111
0.0633555
0.064094
0.0646525
0.0650934
0.0654224
0.0656862
0.0658792
0.0660417
0.0661589
0.0662648
0.0663434
0.0664214
0.0664779
0.0665332
0.0665688
0.0666087
0.0666315
0.0666598
0.0666716
0.0666921
0.0666984
0.0667104
0.066711
0.0667195
0.0667166
0.0667214
0.0667105
0.0667036
0.066676
0.0666403
0.0665709
0.0664757
0.0663281
0.0661271
0.0658411
0.0654582
0.0649319
0.0642341
0.0632977
0.0620672
0.0604439
0.0583351
0.0556048
0.05212
0.0477153
0.0422362
0.0355363
0.0275141
0.0181069
0.00727332
-0.00520607
-0.0200747
-0.039566
-0.0674809
-0.109273
-0.154479
-0.146941
-6.94387
-15.0054
-18.856
-20.1436
-19.8968
-18.7197
-17.0239
-15.0935
-13.1253
-11.2409
-9.51008
-7.965
-6.61429
-5.45213
-4.46451
-3.63361
-2.94027
-2.36574
-1.8925
-1.50474
-1.1885
-0.931679
-0.723924
-0.556484
-0.421963
-0.314257
-0.228261
-0.159812
-0.10547
-0.0624537
-0.0284771
-0.00172508
0.019313
0.0357953
0.0487066
0.058776
0.0666358
0.0727428
0.0774959
0.0811741
0.0840318
0.0862302
0.0879381
0.0892436
0.090259
0.0910303
0.0916342
0.0920881
0.0924468
0.0927118
0.0929289
0.0930878
0.0932246
0.0933263
0.0934207
0.0934902
0.0935547
0.0935969
0.0936414
0.0936681
0.0936995
0.0937134
0.0937344
0.0937408
0.0937518
0.0937502
0.0937543
0.0937458
0.0937427
0.0937213
0.0936998
0.0936527
0.0935901
0.0934844
0.0933397
0.0931258
0.0928351
0.0924292
0.0918864
0.0911477
0.0901678
0.0888588
0.0871378
0.0848727
0.0819294
0.0781226
0.0732625
0.0671228
0.059486
0.0501498
0.0389734
0.0258791
0.0108299
-0.00642784
-0.0268246
-0.0532853
-0.0908901
-0.147165
-0.20847
-0.199577
-8.91546
-19.1969
-24.0819
-25.7102
-25.3898
-23.8843
-21.718
-19.2529
-16.7404
-14.3356
-12.1273
-10.1561
-8.4332
-6.95086
-5.69121
-4.63147
-3.74721
-3.01451
-2.41101
-1.91653
-1.51329
-1.18585
-0.920976
-0.707518
-0.536046
-0.398766
-0.28917
-0.201945
-0.132706
-0.0779023
-0.0346228
-0.000546957
0.0262417
0.0472297
0.063662
0.0764783
0.0864749
0.0942415
0.100281
0.104954
0.108579
0.11137
0.113533
0.115189
0.116473
0.117451
0.118213
0.118788
0.119239
0.119574
0.119844
0.120043
0.12021
0.120334
0.120444
0.120526
0.120599
0.120648
0.120697
0.120727
0.120762
0.120778
0.1208
0.120806
0.120816
0.120813
0.120813
0.120799
0.120788
0.120756
0.12072
0.120654
0.120565
0.120424
0.120231
0.119952
0.119574
0.119051
0.118352
0.117406
0.11615
0.114478
0.112277
0.109385
0.105626
0.100766
0.0945595
0.0867205
0.0769694
0.0650489
0.0507818
0.0340825
0.0149389
-0.00688662
-0.0324069
-0.0650428
-0.110914
-0.179494
-0.254905
-0.246166
-10.8774
-23.3132
-29.1841
-31.1349
-30.7394
-28.9119
-26.2855
-23.2984
-20.2552
-17.3435
-14.6703
-12.2847
-10.1997
-8.40606
-6.88194
-5.59977
-4.52996
-3.64353
-2.91346
-2.31531
-1.82755
-1.43151
-1.11118
-0.85305
-0.645716
-0.47974
-0.347254
-0.241823
-0.158145
-0.0919205
-0.0396311
0.00153518
0.0338887
0.059235
0.0790716
0.0945426
0.106603
0.115972
0.123252
0.128885
0.13325
0.136612
0.139213
0.141207
0.14275
0.143927
0.144841
0.145532
0.146072
0.146474
0.146795
0.147033
0.147228
0.147373
0.147498
0.147591
0.147673
0.147728
0.147781
0.147815
0.147853
0.147871
0.147894
0.147901
0.14791
0.147904
0.147901
0.147881
0.147863
0.147821
0.147771
0.147686
0.147571
0.147395
0.147155
0.146814
0.146351
0.145715
0.144864
0.143717
0.142195
0.14017
0.137504
0.134003
0.129451
0.123568
0.116053
0.106561
0.094751
0.0803127
0.0630354
0.0428344
0.019746
-0.00639146
-0.0365468
-0.0743959
-0.126794
-0.204975
-0.291944
-0.285103
-12.8271
-27.3333
-34.133
-36.3857
-35.9145
-33.7731
-30.6994
-27.2056
-23.6483
-20.246
-17.1234
-14.3374
-11.9028
-9.80857
-8.02917
-6.53231
-5.28343
-4.24869
-3.3965
-2.69835
-2.1291
-1.66691
-1.29313
-0.991949
-0.750069
-0.556461
-0.40194
-0.278992
-0.181425
-0.104222
-0.0432749
0.00470078
0.0423959
0.0719235
0.0950244
0.113039
0.127077
0.137981
0.146447
0.152997
0.15807
0.161976
0.164996
0.167312
0.169102
0.170468
0.171527
0.172329
0.172953
0.173419
0.173788
0.174062
0.174285
0.17445
0.174589
0.174692
0.174782
0.174843
0.174901
0.174938
0.174979
0.174999
0.175023
0.17503
0.175039
0.175032
0.175025
0.175
0.174974
0.174923
0.174859
0.174756
0.174616
0.174407
0.174121
0.173719
0.173175
0.17243
0.171434
0.170094
0.168316
0.165951
0.162838
0.15875
0.153434
0.146564
0.137785
0.126695
0.112894
0.0960183
0.0758281
0.0522483
0.0253888
-0.00476966
-0.0390097
-0.0809845
-0.137921
-0.222551
-0.317993
-0.314884
-14.7611
-31.2338
-38.8972
-41.4308
-40.8846
-38.4391
-34.9332
-30.951
-26.899
-23.0254
-19.4715
-16.3015
-13.5318
-11.1495
-9.1256
-7.42312
-6.00276
-4.82601
-3.85693
-3.06307
-2.41583
-1.89038
-1.46547
-1.12314
-0.848248
-0.628244
-0.452687
-0.31302
-0.202208
-0.114537
-0.0453423
0.00911717
0.0518953
0.0853994
0.111603
0.132034
0.147949
0.160307
0.169899
0.177318
0.18306
0.187482
0.190897
0.193517
0.19554
0.197085
0.19828
0.199186
0.199889
0.200416
0.20083
0.201139
0.201387
0.201572
0.201723
0.201836
0.201933
0.202
0.202062
0.202102
0.202145
0.202168
0.202193
0.202201
0.202209
0.202201
0.20219
0.202161
0.202128
0.202068
0.201991
0.201869
0.201705
0.201464
0.201135
0.200675
0.200054
0.199206
0.198071
0.196547
0.194524
0.191835
0.188294
0.183646
0.177599
0.169784
0.159795
0.147172
0.131459
0.112241
0.0892507
0.0624328
0.0319958
-0.00186869
-0.0396063
-0.0845421
-0.143858
-0.231434
-0.331765
-0.334136
-16.675
-34.9876
-43.4443
-46.2385
-45.6197
-42.8819
-38.9614
-34.5117
-29.9871
-25.6643
-21.6998
-18.1646
-15.0764
-12.4205
-10.1642
-8.26646
-6.68328
-5.3717
-4.29167
-3.40699
-2.68577
-2.10032
-1.62695
-1.24561
-0.939448
-0.694454
-0.498988
-0.343511
-0.220177
-0.12262
-0.0456381
0.0149378
0.0625075
0.0997575
0.128881
0.151586
0.169264
0.18299
0.193638
0.201871
0.20824
0.213145
0.216931
0.219834
0.222075
0.223787
0.225108
0.226112
0.226889
0.227472
0.227929
0.22827
0.228541
0.228743
0.228907
0.229028
0.229132
0.229204
0.22927
0.229314
0.229359
0.229384
0.22941
0.229418
0.229426
0.229417
0.229404
0.22937
0.229331
0.229262
0.229171
0.229033
0.228845
0.228573
0.228204
0.227689
0.226995
0.226049
0.224784
0.223086
0.220832
0.217837
0.213891
0.208711
0.201972
0.19326
0.182121
0.168039
0.150504
0.129052
0.103391
0.0734921
0.0396865
0.00244308
-0.0381944
-0.0849044
-0.144364
-0.231153
-0.332346
-0.341655
-18.5623
-38.5633
-47.7406
-50.7778
-50.0909
-47.0743
-42.7592
-37.8654
-32.8935
-28.1462
-23.7945
-19.915
-16.5268
-13.6133
-11.1384
-9.05691
-7.32056
-5.8822
-4.69784
-3.72779
-2.93705
-2.29524
-1.77636
-1.35842
-1.02292
-0.754499
-0.54038
-0.370097
-0.235047
-0.128243
-0.0439862
0.0223005
0.0743405
0.115083
0.146926
0.171747
0.191066
0.206061
0.21769
0.226678
0.233629
0.23898
0.243108
0.246275
0.248717
0.250582
0.252021
0.253113
0.253959
0.254594
0.255089
0.25546
0.255752
0.25597
0.256145
0.256274
0.256384
0.256461
0.256531
0.256577
0.256625
0.256651
0.256679
0.256688
0.256695
0.256685
0.25667
0.256633
0.256587
0.256509
0.256407
0.256251
0.256042
0.255741
0.255334
0.254768
0.254006
0.252969
0.251583
0.249722
0.247251
0.243969
0.239644
0.233966
0.226575
0.217021
0.204799
0.189342
0.170087
0.146522
0.118333
0.0855249
0.0485707
0.00827673
-0.0346798
-0.0820112
-0.139403
-0.221583
-0.319265
-0.336457
-20.413
-41.9245
-51.7518
-55.0182
-54.2703
-50.9904
-46.3027
-40.9911
-35.5997
-30.4554
-25.7421
-21.5416
-17.8738
-14.7203
-12.0419
-9.78935
-7.91046
-6.35412
-5.07274
-4.02331
-3.16794
-2.47376
-1.91262
-1.46071
-1.098
-0.807845
-0.576441
-0.392449
-0.246559
-0.131208
-0.0402301
0.0313273
0.0874894
0.131449
0.165797
0.192562
0.213388
0.22955
0.242078
0.251759
0.259242
0.265002
0.269443
0.272848
0.275473
0.277479
0.279024
0.280198
0.281105
0.281787
0.282318
0.282714
0.283026
0.283259
0.283444
0.28358
0.283695
0.283777
0.28385
0.283899
0.283948
0.283977
0.284005
0.284016
0.284022
0.284012
0.283995