/*--------------------------------*- C++ -*----------------------------------*\
| =========                 |                                                 |
| \\      /  F ield         | OpenFOAM: The Open Source CFD Toolbox           |
|  \\    /   O peration     | Version:  2.3.0                                 |
|   \\  /    A nd           | Web:      www.OpenFOAM.org                      |
|    \\/     M anipulation  |                                                 |
\*---------------------------------------------------------------------------*/
FoamFile
{
    version     2.0;
    format      ascii;
    class       surfaceScalarField;
    location    "1.5";
    object      phi;
}
// * * * * * * * * * * * * * * * * * * * * * * * * * * * * * * * * * * * * * //

dimensions      [0 3 -1 0 0 0 0];

internalField   nonuniform List<scalar> 
7860
(
0.00283437
0.00216563
0.00262131
0.00021306
0.00260897
1.23451e-05
0.00260647
2.50298e-06
0.00260917
-2.70931e-06
0.0026079
1.27696e-06
0.00260679
1.10544e-06
0.00260522
1.5761e-06
0.00260399
1.22853e-06
0.00260289
1.09485e-06
0.00260201
8.79946e-07
0.00260127
7.42126e-07
0.00260066
6.12837e-07
0.00260014
5.15799e-07
0.00259971
4.33264e-07
0.00259934
3.6666e-07
0.00259903
3.11729e-07
0.00259876
2.64739e-07
0.00259854
2.25018e-07
0.00259835
1.91252e-07
0.00259818
1.62845e-07
0.00259805
1.37501e-07
0.00259793
1.15579e-07
0.00259784
9.63453e-08
0.00259775
8.09065e-08
0.00259769
6.77894e-08
0.00259763
5.63935e-08
0.00259759
4.52817e-08
0.00259755
3.69712e-08
0.00259752
3.01268e-08
0.00259749
2.47622e-08
0.00259747
1.95412e-08
0.00259746
1.56033e-08
0.00259745
1.19401e-08
0.00259744
9.48761e-09
0.00259743
7.1375e-09
0.00259742
5.77802e-09
0.00259742
4.32336e-09
0.00259741
3.52257e-09
0.00259741
2.45156e-09
0.00259741
2.316e-09
0.00259741
1.46258e-09
0.00259741
1.20769e-09
0.0025974
9.90373e-10
0.0025974
1.61139e-09
0.0025974
1.33306e-09
0.0025974
7.91446e-10
0.0025974
1.89779e-10
0.0025974
5.27326e-10
0.0025974
1.59897e-10
0.0025974
7.72977e-11
0.0025974
-7.41327e-10
0.0025974
-6.06924e-10
0.0025974
-3.13585e-10
0.0025974
2.71608e-10
0.0025974
-2.06325e-11
0.0025974
1.10235e-11
0.0025974
-4.19179e-11
0.0025974
2.48764e-10
0.0025974
7.67875e-11
0.0025974
9.68434e-11
0.0025974
-6.65032e-10
0.0025974
-7.05786e-10
0.0025974
-2.29199e-10
0.0025974
1.9093e-10
0.0025974
-4.57806e-10
0.0025974
-2.40811e-10
0.0025974
-1.25122e-11
0.0025974
3.77601e-10
0.0025974
4.93032e-10
0.0025974
3.13525e-10
0.0025974
1.74807e-10
0.0025974
6.19787e-10
0.0025974
2.18261e-10
0.0025974
2.14641e-10
0.0025974
-2.02497e-10
0.0025974
3.05709e-10
0.0025974
4.43501e-10
0.0025974
6.13759e-10
0.0025974
5.20854e-10
0.0025974
5.95483e-10
0.0025974
9.29934e-10
0.0025974
1.68811e-09
0.0025974
1.97989e-09
0.00259739
2.24679e-09
0.00259739
3.07945e-09
0.00259739
5.18135e-09
0.00259738
7.24411e-09
0.00259737
1.02455e-08
0.00259735
1.41524e-08
0.00259733
1.96156e-08
0.00259731
2.6732e-08
0.00259727
3.41892e-08
0.00259724
3.79076e-08
0.0025972
3.34311e-08
0.00259718
2.24061e-08
0.00259708
1.01451e-07
0.00259638
6.95845e-07
0.00259378
2.60265e-06
-1.18995e-06
0.00456774
0.00259789
0.00437551
0.000405287
0.00434671
4.11416e-05
0.00434295
6.26447e-06
0.00434595
-5.71355e-06
0.00434442
2.80807e-06
0.0043428
2.73306e-06
0.00434059
3.78481e-06
0.00433879
3.02449e-06
0.0043372
2.68397e-06
0.00433591
2.17254e-06
0.00433482
1.83091e-06
0.00433392
1.51608e-06
0.00433316
1.27825e-06
0.00433252
1.07584e-06
0.00433197
9.11258e-07
0.00433151
7.75994e-07
0.00433111
6.61605e-07
0.00433077
5.64378e-07
0.00433048
4.80239e-07
0.00433023
4.09302e-07
0.00433002
3.46935e-07
0.00432985
2.93634e-07
0.0043297
2.46471e-07
0.00432957
2.06833e-07
0.00432947
1.729e-07
0.00432938
1.43879e-07
0.00432931
1.17979e-07
0.00432925
9.70848e-08
0.0043292
7.89854e-08
0.00432916
6.49021e-08
0.00432913
5.17832e-08
0.0043291
4.20723e-08
0.00432908
3.27016e-08
0.00432906
2.60343e-08
0.00432905
1.99911e-08
0.00432904
1.6478e-08
0.00432903
1.25648e-08
0.00432902
1.01859e-08
0.00432902
6.9792e-09
0.00432902
6.26973e-09
0.00432901
4.64548e-09
0.00432901
4.24549e-09
0.00432901
3.12717e-09
0.00432901
3.31982e-09
0.00432901
2.40364e-09
0.00432901
1.78928e-09
0.004329
5.36397e-10
0.004329
1.19178e-09
0.004329
1.86928e-10
0.004329
3.11143e-10
0.004329
-2.70501e-10
0.004329
1.01165e-10
0.004329
-6.55197e-10
0.004329
2.09522e-10
0.004329
-1.67154e-10
0.004329
3.59688e-10
0.004329
-2.24371e-10
0.004329
2.33953e-10
0.004329
-2.69857e-10
0.004329
4.43989e-10
0.004329
-2.64212e-10
0.004329
-3.43767e-10
0.004329
-3.6776e-10
0.004329
4.98657e-10
0.004329
-3.22969e-10
0.004329
-7.36188e-11
0.004329
-3.15828e-10
0.004329
2.54403e-10
0.004329
5.50135e-11
0.004329
3.58304e-10
0.004329
-4.26671e-10
0.004329
3.58565e-10
0.004329
1.23369e-10
0.004329
6.2223e-10
0.004329
-6.13202e-11
0.004329
5.62434e-10
0.004329
5.30664e-10
0.004329
1.14548e-09
0.004329
1.38482e-09
0.004329
1.78009e-09
0.004329
1.99921e-09
0.004329
3.24574e-09
0.00432899
4.24034e-09
0.00432899
5.92643e-09
0.00432898
8.15046e-09
0.00432898
1.25984e-08
0.00432897
1.79277e-08
0.00432895
2.56949e-08
0.00432893
3.59036e-08
0.0043289
4.99061e-08
0.00432886
6.68489e-08
0.00432881
8.69397e-08
0.00432874
1.00418e-07
0.00432867
1.04892e-07
0.00432858
1.11066e-07
0.00432827
4.17082e-07
0.00432694
2.02811e-06
0.00432236
7.18277e-06
7.91042e-06
0.00507214
0.00252575
0.00495559
0.000521842
0.00492292
7.38109e-05
0.00492067
8.51342e-06
0.00492251
-7.55119e-06
0.00492136
3.95288e-06
0.0049197
4.39689e-06
0.00491763
5.85288e-06
0.00491587
4.7841e-06
0.00491434
4.22056e-06
0.00491307
3.43641e-06
0.00491201
2.89328e-06
0.00491113
2.40078e-06
0.00491038
2.02348e-06
0.00490975
1.70669e-06
0.00490921
1.44798e-06
0.00490876
1.2345e-06
0.00490836
1.05441e-06
0.00490802
9.01961e-07
0.00490773
7.69936e-07
0.00490749
6.57938e-07
0.00490727
5.59035e-07
0.00490709
4.74276e-07
0.00490694
4.00323e-07
0.00490681
3.36986e-07
0.0049067
2.82101e-07
0.00490661
2.35018e-07
0.00490653
1.94163e-07
0.00490647
1.60929e-07
0.00490642
1.31186e-07
0.00490637
1.07733e-07
0.00490634
8.60666e-08
0.00490631
7.01313e-08
0.00490629
5.5544e-08
0.00490627
4.46096e-08
0.00490626
3.44525e-08
0.00490624
2.81528e-08
0.00490624
2.15427e-08
0.00490623
1.73469e-08
0.00490622
1.21952e-08
0.00490622
1.08229e-08
0.00490621
8.33325e-09
0.00490621
7.54074e-09
0.00490621
5.50032e-09
0.00490621
5.04742e-09
0.00490621
3.26236e-09
0.00490621
2.89136e-09
0.00490621
1.27319e-09
0.00490621
1.98833e-09
0.0049062
5.23641e-10
0.0049062
7.19373e-10
0.0049062
-9.62898e-11
0.0049062
6.85757e-10
0.0049062
-8.31223e-10
0.0049062
6.43576e-11
0.0049062
-4.52269e-10
0.0049062
6.28667e-10
0.0049062
-3.48699e-10
0.0049062
3.70732e-10
0.0049062
-3.67576e-10
0.0049062
4.98942e-10
0.0049062
-1.24745e-11
0.0049062
3.44275e-10
0.0049062
-3.38197e-10
0.0049062
6.35284e-10
0.0049062
-2.76089e-10
0.0049062
1.51326e-10
0.0049062
-6.02998e-10
0.0049062
5.09274e-11
0.0049062
-5.71955e-10
0.0049062
2.48165e-10
0.0049062
-7.49522e-10
0.0049062
4.01155e-10
0.0049062
7.29196e-11
0.0049062
7.6981e-10
0.0049062
1.17352e-10
0.0049062
9.23841e-10
0.0049062
7.11878e-10
0.0049062
1.74049e-09
0.0049062
2.30509e-09
0.0049062
2.97856e-09
0.0049062
3.18442e-09
0.0049062
4.86336e-09
0.00490619
6.34607e-09
0.00490619
9.63919e-09
0.00490618
1.35522e-08
0.00490618
2.03272e-08
0.00490617
2.88357e-08
0.00490615
4.14176e-08
0.00490613
5.78785e-08
0.0049061
8.05122e-08
0.00490606
1.07777e-07
0.004906
1.42271e-07
0.00490593
1.70475e-07
0.00490584
2.01029e-07
0.00490569
2.56627e-07
0.00490522
8.90948e-07
0.0049036
3.64765e-06
0.00489775
1.30253e-05
2.27392e-05
0.00521003
0.00231572
0.00513971
0.000592164
0.00511263
0.000100887
0.00511151
9.63775e-06
0.0051126
-8.64673e-06
0.00511178
4.77466e-06
0.00511033
5.85272e-06
0.00510859
7.58761e-06
0.00510708
6.30021e-06
0.00510576
5.538e-06
0.00510467
4.5283e-06
0.00510375
3.81049e-06
0.00510298
3.16679e-06
0.00510234
2.66988e-06
0.00510179
2.25522e-06
0.00510132
1.91611e-06
0.00510092
1.63589e-06
0.00510057
1.39999e-06
0.00510027
1.20077e-06
0.00510001
1.0276e-06
0.00509979
8.80234e-07
0.0050996
7.50143e-07
0.00509943
6.38294e-07
0.00509929
5.40925e-07
0.00509917
4.56162e-07
0.00509907
3.82801e-07
0.00509899
3.20222e-07
0.00509892
2.65457e-07
0.00509886
2.20473e-07
0.00509881
1.7986e-07
0.00509877
1.47862e-07
0.00509874
1.18866e-07
0.00509871
9.71417e-08
0.00509869
7.75035e-08
0.00509867
6.2478e-08
0.00509866
4.8456e-08
0.00509865
3.91895e-08
0.00509864
3.00437e-08
0.00509863
2.44367e-08
0.00509862
1.775e-08
0.00509862
1.54349e-08
0.00509862
1.18644e-08
0.00509861
1.06776e-08
0.00509861
7.80363e-09
0.00509861
6.9124e-09
0.00509861
4.59659e-09
0.00509861
4.22304e-09
0.00509861
1.99887e-09
0.00509861
2.49986e-09
0.00509861
6.99464e-10
0.0050986
1.09895e-09
0.0050986
-1.26895e-10
0.0050986
7.48758e-10
0.0050986
-1.02217e-09
0.0050986
2.42746e-10
0.0050986
-4.45707e-10
0.0050986
7.00695e-10
0.0050986
-6.24729e-10
0.0050986
4.25531e-10
0.0050986
-2.69602e-10
0.0050986
5.89757e-10
0.0050986
3.73445e-11
0.0050986
7.87491e-10
0.0050986
-3.34286e-10
0.0050986
7.64275e-10
0.0050986
-2.57713e-10
0.0050986
2.19977e-10
0.0050986
-7.64723e-10
0.0050986
7.70821e-11
0.0050986
-9.48619e-10
0.0050986
1.20429e-10
0.0050986
-9.33594e-10
0.0050986
5.78966e-10
0.0050986
1.35879e-10
0.0050986
9.10224e-10
0.0050986
3.23985e-10
0.0050986
1.40116e-09
0.0050986
1.28928e-09
0.0050986
2.53005e-09
0.0050986
3.07559e-09
0.0050986
3.91947e-09
0.0050986
4.15455e-09
0.0050986
6.39881e-09
0.00509859
8.45575e-09
0.00509859
1.30958e-08
0.00509859
1.84219e-08
0.00509858
2.73848e-08
0.00509857
3.89164e-08
0.00509855
5.57264e-08
0.00509853
7.76852e-08
0.00509851
1.07973e-07
0.00509847
1.45028e-07
0.00509842
1.94494e-07
0.00509835
2.4142e-07
0.00509824
3.12024e-07
0.00509805
4.41219e-07
0.00509749
1.45814e-06
0.00509583
5.30041e-06
0.00508957
1.92888e-05
3.78147e-05
0.0052334
0.00208232
0.00519429
0.000631271
0.00517363
0.000121546
0.00517332
9.95177e-06
0.00517395
-9.27961e-06
0.00517344
5.28672e-06
0.00517227
7.02572e-06
0.0051709
8.94917e-06
0.00516969
7.51455e-06
0.00516864
6.59291e-06
0.00516776
5.40825e-06
0.00516701
4.55088e-06
0.00516639
3.78711e-06
0.00516587
3.1931e-06
0.00516542
2.70079e-06
0.00516504
2.29906e-06
0.00516471
1.96607e-06
0.00516442
1.68588e-06
0.00516417
1.44938e-06
0.00516396
1.24309e-06
0.00516377
1.06715e-06
0.00516361
9.12297e-07
0.00516347
7.78737e-07
0.00516335
6.61615e-07
0.00516325
5.59033e-07
0.00516316
4.70363e-07
0.00516308
3.94728e-07
0.00516302
3.28153e-07
0.00516297
2.72626e-07
0.00516292
2.22907e-07
0.00516289
1.83844e-07
0.00516286
1.48456e-07
0.00516283
1.21626e-07
0.00516282
9.73348e-08
0.0051628
7.85475e-08
0.00516279
6.11464e-08
0.00516278
4.93664e-08
0.00516277
3.80537e-08
0.00516276
3.11728e-08
0.00516276
2.3041e-08
0.00516275
1.97163e-08
0.00516275
1.50481e-08
0.00516275
1.35569e-08
0.00516274
1.00185e-08
0.00516274
8.81792e-09
0.00516274
5.98981e-09
0.00516274
5.57275e-09
0.00516274
2.67424e-09
0.00516274
2.83719e-09
0.00516274
7.59685e-10
0.00516274
1.3101e-09
0.00516274
-2.98875e-10
0.00516274
7.06538e-10
0.00516274
-1.08352e-09
0.00516274
5.0598e-10
0.00516274
-4.59408e-10
0.00516274
7.74989e-10
0.00516274
-6.78177e-10
0.00516274
5.82681e-10
0.00516274
-1.91733e-10
0.00516274
7.13522e-10
0.00516274
8.80424e-11
0.00516274
1.12345e-09
0.00516274
-3.56361e-10
0.00516274
8.59347e-10
0.00516274
-2.69193e-10
0.00516274
3.10265e-10
0.00516274
-8.82219e-10
0.00516274
2.12753e-10
0.00516274
-1.13142e-09
0.00516274
3.73919e-11
0.00516274
-1.00743e-09
0.00516274
7.51374e-10
0.00516274
2.04774e-10
0.00516274
1.09949e-09
0.00516274
6.52561e-10
0.00516274
2.04441e-09
0.00516274
1.87811e-09
0.00516273
3.18538e-09
0.00516273
3.63975e-09
0.00516273
4.71214e-09
0.00516273
4.9874e-09
0.00516273
7.72656e-09
0.00516273
1.04624e-08
0.00516273
1.62273e-08
0.00516272
2.27339e-08
0.00516272
3.35124e-08
0.00516271
4.75188e-08
0.00516269
6.7842e-08
0.00516268
9.4335e-08
0.00516266
1.31244e-07
0.00516262
1.77213e-07
0.00516258
2.41257e-07
0.00516251
3.09611e-07
0.00516239
4.2983e-07
0.00516218
6.4792e-07
0.0051616
2.04179e-06
0.00516003
6.86685e-06
0.00515415
2.51723e-05
5.09455e-05
0.00522268
0.00185964
0.00520664
0.000647311
0.00519192
0.000136274
0.00519215
9.72215e-06
0.0051925
-9.63332e-06
0.00519226
5.52834e-06
0.00519138
7.89941e-06
0.0051904
9.93797e-06
0.00518949
8.42196e-06
0.0051887
7.3808e-06
0.00518804
6.07174e-06
0.00518748
5.11061e-06
0.005187
4.25854e-06
0.0051866
3.59223e-06
0.00518626
3.04222e-06
0.00518597
2.59401e-06
0.00518571
2.22227e-06
0.00518549
1.90907e-06
0.00518529
1.64453e-06
0.00518512
1.4135e-06
0.00518497
1.21627e-06
0.00518484
1.04259e-06
0.00518473
8.92204e-07
0.00518463
7.59517e-07
0.00518454
6.43542e-07
0.00518447
5.42773e-07
0.00518441
4.5633e-07
0.00518436
3.79868e-07
0.00518431
3.16266e-07
0.00518428
2.59365e-07
0.00518425
2.14656e-07
0.00518422
1.73843e-07
0.0051842
1.42532e-07
0.00518418
1.1428e-07
0.00518417
9.24164e-08
0.00518416
7.22554e-08
0.00518415
5.8395e-08
0.00518414
4.52221e-08
0.00518414
3.72041e-08
0.00518413
2.77661e-08
0.00518413
2.35089e-08
0.00518412
1.79041e-08
0.00518412
1.60732e-08
0.00518412
1.18878e-08
0.00518412
1.04317e-08
0.00518412
7.155e-09
0.00518412
6.68849e-09
0.00518412
3.19431e-09
0.00518412
3.09201e-09
0.00518412
7.61724e-10
0.00518412
1.39588e-09
0.00518412
-5.6319e-10
0.00518412
6.85117e-10
0.00518412
-1.09197e-09
0.00518411
6.70538e-10
0.00518411
-4.96611e-10
0.00518411
9.5199e-10
0.00518411
-5.5178e-10
0.00518411
7.32463e-10
0.00518411
-2.31268e-10
0.00518411
8.31665e-10
0.00518411
1.45006e-10
0.00518411
1.44756e-09
0.00518411
-3.07078e-10
0.00518411
9.36615e-10
0.00518411
-3.27689e-10
0.00518411
3.78244e-10
0.00518411
-9.92238e-10
0.00518411
3.52536e-10
0.00518411
-1.2348e-09
0.00518411
3.45424e-11
0.00518411
-9.70464e-10
0.00518411
9.09434e-10
0.00518411
2.63372e-10
0.00518411
1.32631e-09
0.00518411
9.7501e-10
0.00518411
2.54729e-09
0.00518411
2.28249e-09
0.00518411
3.70826e-09
0.00518411
4.06832e-09
0.00518411
5.37436e-09
0.00518411
5.73606e-09
0.00518411
8.87405e-09
0.00518411
1.21746e-08
0.00518411
1.88925e-08
0.0051841
2.63984e-08
0.0051841
3.86606e-08
0.00518409
5.43722e-08
0.00518408
7.73257e-08
0.00518407
1.0749e-07
0.00518405
1.49959e-07
0.00518402
2.0376e-07
0.00518398
2.81559e-07
0.00518392
3.71804e-07
0.0051838
5.46737e-07
0.00518359
8.58106e-07
0.00518302
2.6119e-06
0.00518164
8.24566e-06
0.0051766
3.02169e-05
6.15781e-05
0.00520401
0.00165562
0.00520555
0.000645772
0.00519615
0.000145674
0.00519673
9.14025e-06
0.0051969
-9.80419e-06
0.00519689
5.53926e-06
0.00519631
8.4816e-06
0.00519567
1.05773e-05
0.00519506
9.03462e-06
0.00519453
7.91315e-06
0.00519407
6.52637e-06
0.00519368
5.49605e-06
0.00519336
4.58593e-06
0.00519308
3.87106e-06
0.00519284
3.2824e-06
0.00519263
2.80292e-06
0.00519244
2.40532e-06
0.00519228
2.06974e-06
0.00519214
1.78632e-06
0.00519201
1.53867e-06
0.0051919
1.32683e-06
0.00519181
1.13983e-06
0.00519172
9.7746e-07
0.00519165
8.33907e-07
0.00519158
7.08497e-07
0.00519153
5.98885e-07
0.00519148
5.04142e-07
0.00519144
4.20247e-07
0.0051914
3.50806e-07
0.00519137
2.8854e-07
0.00519135
2.39362e-07
0.00519133
1.94263e-07
0.00519131
1.59321e-07
0.0051913
1.28016e-07
0.00519129
1.03845e-07
0.00519128
8.15149e-08
0.00519127
6.59436e-08
0.00519126
5.1122e-08
0.00519126
4.2294e-08
0.00519125
3.18044e-08
0.00519125
2.67765e-08
0.00519125
2.03443e-08
0.00519125
1.80562e-08
0.00519125
1.33022e-08
0.00519124
1.16459e-08
0.00519124
7.97659e-09
0.00519124
7.42955e-09
0.00519124
3.51615e-09
0.00519124
3.27794e-09
0.00519124
6.86172e-10
0.00519124
1.39803e-09
0.00519124
-8.2668e-10
0.00519124
6.8727e-10
0.00519124
-1.06089e-09
0.00519124
8.03712e-10
0.00519124
-4.77158e-10
0.00519124
1.14387e-09
0.00519124
-4.69336e-10
0.00519124
7.90502e-10
0.00519124
-3.36801e-10
0.00519124
9.34285e-10
0.00519124
1.50526e-10
0.00519124
1.68363e-09
0.00519124
-2.38707e-10
0.00519124
9.8845e-10
0.00519124
-4.16064e-10
0.00519124
3.8791e-10
0.00519124
-1.14449e-09
0.00519124
4.35176e-10
0.00519124
-1.29965e-09
0.00519124
5.7585e-11
0.00519124
-9.45791e-10
0.00519124
9.69317e-10
0.00519124
2.5589e-10
0.00519124
1.45957e-09
0.00519124
1.10938e-09
0.00519124
2.83281e-09
0.00519124
2.55182e-09
0.00519124
4.1161e-09
0.00519124
4.32409e-09
0.00519124
5.84336e-09
0.00519124
6.31964e-09
0.00519124
9.73956e-09
0.00519123
1.34282e-08
0.00519123
2.08776e-08
0.00519123
2.92665e-08
0.00519123
4.25158e-08
0.00519122
5.937e-08
0.00519121
8.42174e-08
0.0051912
1.17192e-07
0.00519119
1.64028e-07
0.00519117
2.24378e-07
0.00519114
3.14624e-07
0.00519108
4.26523e-07
0.00519097
6.56067e-07
0.00519077
1.05813e-06
0.00519026
3.12938e-06
0.00518912
9.37853e-06
0.00518513
3.42127e-05
6.96149e-05
0.00518542
0.00147021
0.0052006
0.000630593
0.00519591
0.00015036
0.0051967
8.35081e-06
0.00519673
-9.83578e-06
0.00519691
5.36332e-06
0.0051966
8.79101e-06
0.00519628
1.08972e-05
0.00519594
9.37216e-06
0.00519564
8.20713e-06
0.00519539
6.78456e-06
0.00519516
5.71726e-06
0.00519497
4.77696e-06
0.00519481
4.03553e-06
0.00519466
3.426e-06
0.00519454
2.92945e-06
0.00519442
2.51784e-06
0.00519432
2.17e-06
0.00519423
1.87625e-06
0.00519415
1.61932e-06
0.00519408
1.39895e-06
0.00519401
1.20412e-06
0.00519396
1.03454e-06
0.00519391
8.84471e-07
0.00519386
7.53258e-07
0.00519382
6.37899e-07
0.00519379
5.37825e-07
0.00519376
4.48972e-07
0.00519374
3.75727e-07
0.00519371
3.09653e-07
0.0051937
2.57256e-07
0.00519368
2.09313e-07
0.00519367
1.71795e-07
0.00519366
1.38264e-07
0.00519365
1.12472e-07
0.00519364
8.8565e-08
0.00519364
7.16845e-08
0.00519363
5.55723e-08
0.00519363
4.62216e-08
0.00519363
3.50345e-08
0.00519362
2.94314e-08
0.00519362
2.22339e-08
0.00519362
1.94625e-08
0.00519362
1.43126e-08
0.00519362
1.24976e-08
0.00519362
8.49726e-09
0.00519362
7.852e-09
0.00519362
3.68605e-09
0.00519362
3.40307e-09
0.00519362
5.51859e-10
0.00519362
1.35653e-09
0.00519362
-1.02787e-09
0.00519362
7.48858e-10
0.00519362
-9.25286e-10
0.00519362
9.53529e-10
0.00519362
-4.47765e-10
0.00519362
1.2655e-09
0.00519362
-4.54733e-10
0.00519361
8.10339e-10
0.00519361
-4.19661e-10
0.00519361
1.01258e-09
0.00519361
6.48387e-11
0.00519361
1.77673e-09
0.00519361
-2.06469e-10
0.00519361
1.00442e-09
0.00519361
-5.13943e-10
0.00519361
3.91279e-10
0.00519361
-1.32792e-09
0.00519362
3.97674e-10
0.00519362
-1.35064e-09
0.00519362
5.9037e-11
0.00519362
-9.94942e-10
0.00519362
8.85763e-10
0.00519361
1.62375e-10
0.00519361
1.52404e-09
0.00519361
1.17309e-09
0.00519361
3.03067e-09
0.00519361
2.71938e-09
0.00519361
4.3776e-09
0.00519361
4.394e-09
0.00519361
6.07886e-09
0.00519361
6.68365e-09
0.00519361
1.02947e-08
0.00519361
1.41983e-08
0.00519361
2.22126e-08
0.00519361
3.10594e-08
0.00519361
4.50294e-08
0.0051936
6.26295e-08
0.0051936
8.8717e-08
0.00519359
1.23515e-07
0.00519358
1.73423e-07
0.00519357
2.38914e-07
0.00519354
3.39889e-07
0.0051935
4.71592e-07
0.0051934
7.51536e-07
0.00519323
1.23486e-06
0.00519279
3.56296e-06
0.00519194
1.02327e-05
0.00518908
3.70725e-05
7.5083e-05
0.00516896
0.00130124
0.00519492
0.000604635
0.00519438
0.000150901
0.00519527
7.46223e-06
0.00519517
-9.74094e-06
0.00519549
5.04549e-06
0.00519543
8.85142e-06
0.0051954
1.09286e-05
0.00519531
9.45689e-06
0.00519524
8.2817e-06
0.00519516
6.86052e-06
0.00519509
5.78557e-06
0.00519503
4.84045e-06
0.00519497
4.0928e-06
0.00519492
3.47876e-06
0.00519487
2.97821e-06
0.00519482
2.56348e-06
0.00519478
2.21264e-06
0.00519474
1.91627e-06
0.0051947
1.65668e-06
0.00519467
1.43357e-06
0.00519464
1.23616e-06
0.00519461
1.06392e-06
0.00519458
9.11248e-07
0.00519456
7.77606e-07
0.00519453
6.59559e-07
0.00519451
5.57129e-07
0.0051945
4.65698e-07
0.00519448
3.90491e-07
0.00519447
3.22254e-07
0.00519446
2.68129e-07
0.00519445
2.18789e-07
0.00519444
1.7968e-07
0.00519444
1.44655e-07
0.00519443
1.1792e-07
0.00519443
9.31582e-08
0.00519442
7.54864e-08
0.00519442
5.85234e-08
0.00519442
4.88814e-08
0.00519442
3.7382e-08
0.00519441
3.13066e-08
0.00519441
2.343e-08
0.00519441
2.03265e-08
0.00519441
1.49707e-08
0.00519441
1.30623e-08
0.00519441
8.84347e-09
0.00519441
8.0477e-09
0.00519441
3.73834e-09
0.00519441
3.50742e-09
0.00519441
4.41719e-10
0.00519441
1.31712e-09
0.00519441
-1.11586e-09
0.00519441
8.76392e-10
0.00519441
-7.1683e-10
0.00519441
1.06549e-09
0.00519441
-4.60276e-10
0.00519441
1.30557e-09
0.00519441
-4.26245e-10
0.00519441
9.00017e-10
0.00519441
-3.84136e-10
0.00519441
1.0991e-09
0.00519441
-7.58386e-11
0.00519441
1.78723e-09
0.00519441
-1.7462e-10
0.00519441
9.91202e-10
0.00519441
-6.51087e-10
0.00519441
3.83141e-10
0.00519441
-1.55765e-09
0.00519441
2.1104e-10
0.00519441
-1.42247e-09
0.00519441
-2.91509e-12
0.00519441
-1.10562e-09
0.00519441
7.36379e-10
0.00519441
1.1656e-10
0.00519441
1.65771e-09
0.00519441
1.32422e-09
0.00519441
3.21096e-09
0.00519441
2.78266e-09
0.00519441
4.47034e-09
0.00519441
4.30616e-09
0.00519441
6.11423e-09
0.00519441
6.87861e-09
0.00519441
1.05487e-08
0.0051944
1.4512e-08
0.0051944
2.26967e-08
0.0051944
3.19265e-08
0.0051944
4.62955e-08
0.0051944
6.42277e-08
0.0051944
9.08865e-08
0.0051944
1.26519e-07
0.00519439
1.78192e-07
0.00519438
2.47297e-07
0.00519437
3.56701e-07
0.00519433
5.04992e-07
0.00519426
8.27629e-07
0.00519411
1.37736e-06
0.00519379
3.89061e-06
0.00519323
1.07895e-05
0.00519153
3.87734e-05
7.80778e-05
0.00515492
0.00114633
0.00518951
0.000570046
0.00519261
0.000147803
0.00519352
6.54989e-06
0.00519329
-9.51676e-06
0.00519371
4.6279e-06
0.00519387
8.68863e-06
0.0051941
1.07018e-05
0.00519425
9.3117e-06
0.00519437
8.15623e-06
0.00519446
6.76912e-06
0.00519453
5.71293e-06
0.00519459
4.78586e-06
0.00519463
4.05055e-06
0.00519466
3.4468e-06
0.00519469
2.95413e-06
0.0051947
2.54613e-06
0.00519472
2.20063e-06
0.00519472
1.90864e-06
0.00519473
1.65246e-06
0.00519473
1.43211e-06
0.00519473
1.23692e-06
0.00519473
1.06626e-06
0.00519472
9.14602e-07
0.00519472
7.81714e-07
0.00519472
6.63988e-07
0.00519471
5.62006e-07
0.00519471
4.70353e-07
0.0051947
3.95023e-07
0.0051947
3.26335e-07
0.00519469
2.71917e-07
0.00519469
2.22378e-07
0.00519469
1.82675e-07
0.00519468
1.46993e-07
0.00519468
1.20044e-07
0.00519468
9.51841e-08
0.00519468
7.72893e-08
0.00519468
5.99545e-08
0.00519468
5.02446e-08
0.00519468
3.86313e-08
0.00519467
3.23003e-08
0.00519467
2.39901e-08
0.00519467
2.06771e-08
0.00519467
1.52816e-08
0.00519467
1.34196e-08
0.00519467
9.02122e-09
0.00519467
8.11932e-09
0.00519467
3.73779e-09
0.00519467
3.6389e-09
0.00519467
4.08343e-10
0.00519467
1.31509e-09
0.00519467
-1.10902e-09
0.00519467
9.82339e-10
0.00519467
-5.69345e-10
0.00519467
1.13126e-09
0.00519467
-5.05131e-10
0.00519467
1.34769e-09
0.00519467
-3.24289e-10
0.00519467
1.14488e-09
0.00519467
-1.75029e-10
0.00519467
1.23218e-09
0.00519467
-1.71664e-10
0.00519467
1.73899e-09
0.00519467
-1.61634e-10
0.00519467
8.80667e-10
0.00519467
-8.77613e-10
0.00519467
3.11501e-10
0.00519467
-1.82357e-09
0.00519467
-4.4547e-11
0.00519467
-1.58394e-09
0.00519467
-5.27008e-11
0.00519467
-1.19736e-09
0.00519467
7.19664e-10
0.00519467
2.24875e-10
0.00519467
1.90293e-09
0.00519467
1.52277e-09
0.00519467
3.33369e-09
0.00519467
2.76002e-09
0.00519467
4.43576e-09
0.00519467
4.12409e-09
0.00519467
6.02131e-09
0.00519467
6.88919e-09
0.00519467
1.05521e-08
0.00519467
1.43779e-08
0.00519467
2.25244e-08
0.00519467
3.18269e-08
0.00519467
4.63244e-08
0.00519467
6.41682e-08
0.00519467
9.07704e-08
0.00519467
1.26361e-07
0.00519467
1.785e-07
0.00519467
2.49511e-07
0.00519466
3.64527e-07
0.00519464
5.25117e-07
0.00519459
8.79988e-07
0.00519449
1.47744e-06
0.00519428
4.09762e-06
0.00519403
1.104e-05
0.00519347
3.93337e-05
7.87397e-05
0.00514309
0.00100324
0.00518463
0.000528497
0.00519092
0.000141515
0.00519181
5.66155e-06
0.00519145
-9.1547e-06
0.00519193
4.14748e-06
0.00519229
8.32879e-06
0.00519275
1.02458e-05
0.0051931
8.95923e-06
0.0051934
7.84991e-06
0.00519365
6.52551e-06
0.00519385
5.51158e-06
0.00519401
4.62291e-06
0.00519415
3.91652e-06
0.00519426
3.33628e-06
0.00519435
2.86223e-06
0.00519443
2.46983e-06
0.00519449
2.13721e-06
0.00519454
1.85605e-06
0.00519459
1.60881e-06
0.00519462
1.39634e-06
0.00519465
1.20768e-06
0.00519468
1.04256e-06
0.00519469
8.95362e-07
0.00519471
7.66318e-07
0.00519472
6.51759e-07
0.00519473
5.52773e-07
0.00519474
4.63184e-07
0.00519474
3.89541e-07
0.00519475
3.22007e-07
0.00519475
2.68575e-07
0.00519475
2.19907e-07
0.00519476
1.80722e-07
0.00519476
1.4535e-07
0.00519476
1.18898e-07
0.00519476
9.46062e-08
0.00519476
7.7077e-08
0.00519476
5.98597e-08
0.00519476
5.0199e-08
0.00519476
3.86967e-08
0.00519476
3.24075e-08
0.00519476
2.3887e-08
0.00519476
2.05231e-08
0.00519476
1.52197e-08
0.00519476
1.34955e-08
0.00519476
9.03173e-09
0.00519476
8.08872e-09
0.00519476
3.67559e-09
0.00519476
3.7984e-09
0.00519476
4.38133e-10
0.00519476
1.33201e-09
0.00519476
-1.08932e-09
0.00519476
9.79145e-10
0.00519476
-5.13225e-10
0.00519476
1.12914e-09
0.00519476
-5.05507e-10
0.00519476
1.40736e-09
0.00519476
-1.64628e-10
0.00519476
1.52271e-09
0.00519476
1.12606e-10
0.00519476
1.42283e-09
0.00519476
-3.19525e-10
0.00519476
1.61079e-09
0.00519476
-2.59064e-10
0.00519476
6.76523e-10
0.00519476
-1.19524e-09
0.00519476
1.67108e-10
0.00519476
-2.01865e-09
0.00519476
-3.77483e-10
0.00519476
-1.6849e-09
0.00519476
-5.61369e-11
0.00519476
-1.13091e-09
0.00519476
8.732e-10
0.00519476
4.71843e-10
0.00519476
2.13895e-09
0.00519476
1.63366e-09
0.00519476
3.4021e-09
0.00519476
2.69497e-09
0.00519476
4.34385e-09
0.00519476
3.89962e-09
0.00519476
5.81676e-09
0.00519476
6.74083e-09
0.00519476
1.02921e-08
0.00519476
1.38219e-08
0.00519476
2.17357e-08
0.00519476
3.08176e-08
0.00519476
4.5142e-08
0.00519476
6.2516e-08
0.00519477
8.84703e-08
0.00519477
1.23239e-07
0.00519477
1.74591e-07
0.00519478
2.45651e-07
0.00519478
3.6307e-07
0.00519477
5.30827e-07
0.00519475
9.05468e-07
0.0051947
1.52946e-06
0.00519462
4.17551e-06
0.00519467
1.09841e-05
0.00519521
3.88006e-05
7.72372e-05
0.00513317
0.000870068
0.00518035
0.000481317
0.00518943
0.000132442
0.00519026
4.82394e-06
0.00518976
-8.64669e-06
0.00519027
3.63491e-06
0.0051908
7.79749e-06
0.00519146
9.58839e-06
0.005192
8.42177e-06
0.00519246
7.38172e-06
0.00519284
6.14502e-06
0.00519316
5.19389e-06
0.00519342
4.36148e-06
0.00519364
3.69854e-06
0.00519382
3.15361e-06
0.00519398
2.70787e-06
0.00519411
2.33905e-06
0.00519422
2.02608e-06
0.00519432
1.76163e-06
0.0051944
1.5284e-06
0.00519446
1.32836e-06
0.00519452
1.15015e-06
0.00519457
9.94279e-07
0.00519461
8.54846e-07
0.00519464
7.32573e-07
0.00519467
6.23745e-07
0.00519469
5.29999e-07
0.00519471
4.44592e-07
0.00519473
3.74373e-07
0.00519474
3.09501e-07
0.00519475
2.58249e-07
0.00519476
2.11513e-07
0.00519476
1.74022e-07
0.00519477
1.39925e-07
0.00519477
1.14606e-07
0.00519478
9.14165e-08
0.00519478
7.48408e-08
0.00519478
5.82118e-08
0.00519478
4.87546e-08
0.00519478
3.75619e-08
0.00519479
3.15902e-08
0.00519479
2.31161e-08
0.00519479
1.98755e-08
0.00519479
1.47616e-08
0.00519479
1.32908e-08
0.00519479
8.82908e-09
0.00519479
7.91986e-09
0.00519479
3.51625e-09
0.00519479
3.92403e-09
0.00519479
4.69019e-10
0.00519479
1.33826e-09
0.00519479
-1.08408e-09
0.00519479
8.91739e-10
0.00519479
-5.75634e-10
0.00519479
1.14085e-09
0.00519479
-4.68756e-10
0.00519479
1.50564e-09
0.00519479
-1.12629e-11
0.00519479
1.90157e-09
0.00519479
3.73582e-10
0.00519479
1.50352e-09
0.00519479
-5.23055e-10
0.00519479
1.35079e-09
0.00519479
-4.45477e-10
0.00519479
4.61033e-10
0.00519479
-1.5019e-09
0.00519479
4.65625e-11
0.00519479
-2.15939e-09
0.00519479
-5.84859e-10
0.00519479
-1.70454e-09
0.00519479
8.30799e-11
0.00519479
-9.77737e-10
0.00519479
1.12996e-09
0.00519479
7.35251e-10
0.00519479
2.27776e-09
0.00519479
1.63755e-09
0.00519479
3.40364e-09
0.00519479
2.62122e-09
0.00519479
4.24806e-09
0.00519479
3.67071e-09
0.00519479
5.50461e-09
0.00519479
6.36961e-09
0.00519479
9.7643e-09
0.00519479
1.29159e-08
0.00519479
2.04214e-08
0.00519479
2.89887e-08
0.0051948
4.28421e-08
0.0051948
5.94001e-08
0.0051948
8.41287e-08
0.00519481
1.17361e-07
0.00519482
1.66743e-07
0.00519483
2.35912e-07
0.00519484
3.52261e-07
0.00519485
5.21473e-07
0.00519485
9.02164e-07
0.00519485
1.53022e-06
0.0051949
4.12142e-06
0.00519526
1.06297e-05
0.00519682
3.72425e-05
7.37566e-05
0.00512491
0.000745157
0.00517664
0.000429584
0.00518813
0.000120955
0.00518891
4.0488e-06
0.00518825
-7.98849e-06
0.00518877
3.11422e-06
0.00518945
7.11926e-06
0.00519028
8.75578e-06
0.00519098
7.72129e-06
0.00519159
6.77046e-06
0.00519209
5.64293e-06
0.00519252
4.77241e-06
0.00519287
4.01177e-06
0.00519316
3.40487e-06
0.00519341
2.90571e-06
0.00519362
2.49687e-06
0.0051938
2.15873e-06
0.00519395
1.87147e-06
0.00519409
1.62897e-06
0.0051942
1.41432e-06
0.0051943
1.23072e-06
0.00519438
1.06652e-06
0.00519445
9.23282e-07
0.00519451
7.94654e-07
0.00519456
6.8181e-07
0.00519461
5.80993e-07
0.00519464
4.94466e-07
0.00519467
4.15156e-07
0.00519469
3.50008e-07
0.00519471
2.89258e-07
0.00519473
2.41331e-07
0.00519474
1.97578e-07
0.00519476
1.62887e-07
0.00519476
1.30957e-07
0.00519477
1.07337e-07
0.00519478
8.57288e-08
0.00519478
7.06275e-08
0.00519479
5.49917e-08
0.00519479
4.5919e-08
0.00519479
3.52335e-08
0.00519479
2.98578e-08
0.00519479
2.17151e-08
0.00519479
1.87627e-08
0.00519479
1.39282e-08
0.0051948
1.2745e-08
0.0051948
8.36688e-09
0.0051948
7.60362e-09
0.0051948
3.249e-09
0.0051948
3.92798e-09
0.0051948
4.64945e-10
0.0051948
1.31983e-09
0.0051948
-1.09691e-09
0.0051948
7.19837e-10
0.0051948
-7.11018e-10
0.0051948
1.133e-09
0.0051948
-3.99725e-10
0.0051948
1.61703e-09
0.0051948
8.31233e-11
0.0051948
2.15951e-09
0.0051948
4.78273e-10
0.0051948
1.48341e-09
0.0051948
-7.60642e-10
0.0051948
1.02028e-09
0.0051948
-6.56671e-10
0.0051948
3.31884e-10
0.0051948
-1.6955e-09
0.0051948
-3.31521e-11
0.0051948
-2.15955e-09
0.0051948
-6.483e-10
0.0051948
-1.61096e-09
0.0051948
2.86853e-10
0.0051948
-7.97849e-10
0.0051948
1.37651e-09
0.0051948
9.73326e-10
0.0051948
2.34431e-09
0.0051948
1.5466e-09
0.0051948
3.34115e-09
0.0051948
2.54458e-09
0.0051948
4.18686e-09
0.0051948
3.46733e-09
0.0051948
5.07404e-09
0.0051948
5.76313e-09
0.0051948
8.97417e-09
0.0051948
1.17094e-08
0.0051948