/*--------------------------------*- C++ -*----------------------------------*\
| =========                 |                                                 |
| \\      /  F ield         | OpenFOAM: The Open Source CFD Toolbox           |
|  \\    /   O peration     | Version:  2.3.0                                 |
|   \\  /    A nd           | Web:      www.OpenFOAM.org                      |
|    \\/     M anipulation  |                                                 |
\*---------------------------------------------------------------------------*/
FoamFile
{
    version     2.0;
    format      ascii;
    class       volVectorField;
    location    "1.5";
    object      U;
}
// * * * * * * * * * * * * * * * * * * * * * * * * * * * * * * * * * * * * * //

dimensions      [0 1 -1 0 0 0 0];

internalField   nonuniform List<vector> 
4000
(
(0.537554 0.0563955 0)
(0.552189 0.00359565 0)
(0.517071 -0.00176462 0)
(0.522896 -0.00200121 0)
(0.52108 -0.00213076 0)
(0.522011 -0.00203768 0)
(0.521403 -0.00204467 0)
(0.521251 -0.00203478 0)
(0.520906 -0.00204434 0)
(0.520696 -0.00204822 0)
(0.520487 -0.00205384 0)
(0.520329 -0.00205748 0)
(0.520192 -0.00206086 0)
(0.52008 -0.0020634 0)
(0.519985 -0.00206547 0)
(0.519905 -0.0020671 0)
(0.519837 -0.00206842 0)
(0.519779 -0.00206952 0)
(0.51973 -0.00207042 0)
(0.519688 -0.00207117 0)
(0.519653 -0.00207179 0)
(0.519623 -0.00207233 0)
(0.519598 -0.00207279 0)
(0.519576 -0.00207319 0)
(0.519559 -0.0020735 0)
(0.519544 -0.00207376 0)
(0.519532 -0.00207399 0)
(0.519522 -0.00207421 0)
(0.519513 -0.00207438 0)
(0.519506 -0.00207451 0)
(0.519501 -0.00207461 0)
(0.519497 -0.00207472 0)
(0.519493 -0.00207479 0)
(0.51949 -0.00207486 0)
(0.519488 -0.00207491 0)
(0.519486 -0.00207496 0)
(0.519485 -0.00207498 0)
(0.519484 -0.00207501 0)
(0.519483 -0.00207502 0)
(0.519482 -0.00207505 0)
(0.519482 -0.00207505 0)
(0.519481 -0.00207506 0)
(0.519481 -0.00207507 0)
(0.519481 -0.00207507 0)
(0.519481 -0.00207505 0)
(0.519481 -0.00207506 0)
(0.519481 -0.00207507 0)
(0.519481 -0.00207509 0)
(0.51948 -0.00207508 0)
(0.51948 -0.00207509 0)
(0.51948 -0.00207509 0)
(0.51948 -0.00207511 0)
(0.51948 -0.0020751 0)
(0.51948 -0.0020751 0)
(0.51948 -0.00207508 0)
(0.51948 -0.00207509 0)
(0.51948 -0.00207509 0)
(0.51948 -0.00207509 0)
(0.51948 -0.00207508 0)
(0.51948 -0.00207509 0)
(0.51948 -0.00207509 0)
(0.51948 -0.00207511 0)
(0.51948 -0.0020751 0)
(0.51948 -0.0020751 0)
(0.51948 -0.00207508 0)
(0.51948 -0.0020751 0)
(0.51948 -0.00207509 0)
(0.51948 -0.00207509 0)
(0.51948 -0.00207508 0)
(0.51948 -0.00207508 0)
(0.51948 -0.00207508 0)
(0.51948 -0.00207508 0)
(0.51948 -0.00207508 0)
(0.51948 -0.00207509 0)
(0.51948 -0.00207509 0)
(0.51948 -0.00207509 0)
(0.51948 -0.00207508 0)
(0.51948 -0.00207508 0)
(0.51948 -0.00207507 0)
(0.51948 -0.00207508 0)
(0.51948 -0.00207507 0)
(0.51948 -0.00207507 0)
(0.51948 -0.00207505 0)
(0.519479 -0.00207504 0)
(0.519479 -0.00207503 0)
(0.519478 -0.00207501 0)
(0.519478 -0.00207496 0)
(0.519476 -0.00207492 0)
(0.519475 -0.00207485 0)
(0.519472 -0.00207476 0)
(0.519469 -0.00207463 0)
(0.519464 -0.00207448 0)
(0.519458 -0.00207434 0)
(0.51945 -0.00207433 0)
(0.519443 -0.00207464 0)
(0.519436 -0.00207529 0)
(0.519442 -0.00207439 0)
(0.51936 -0.00206119 0)
(0.519228 -0.00202118 0)
(0.518638 -0.00215159 0)
(0.864915 0.12845 0)
(0.91158 0.0160015 0)
(0.861967 0.00098589 0)
(0.871357 -7.10087e-05 0)
(0.867969 -0.000505101 0)
(0.869556 -0.000190262 0)
(0.868596 -0.000201586 0)
(0.868427 -0.000163612 0)
(0.867912 -0.000193166 0)
(0.867614 -0.00020572 0)
(0.867306 -0.000224894 0)
(0.867076 -0.000237668 0)
(0.866873 -0.00024969 0)
(0.866708 -0.000258935 0)
(0.866567 -0.000266232 0)
(0.866449 -0.000272082 0)
(0.866347 -0.000276884 0)
(0.866261 -0.000280953 0)
(0.866188 -0.000284391 0)
(0.866125 -0.000287343 0)
(0.866071 -0.000289818 0)
(0.866025 -0.000292002 0)
(0.865987 -0.000293865 0)
(0.865954 -0.000295504 0)
(0.865926 -0.000296857 0)
(0.865903 -0.000298008 0)
(0.865884 -0.000298994 0)
(0.865868 -0.000299902 0)
(0.865855 -0.000300612 0)
(0.865844 -0.000301218 0)
(0.865835 -0.000301686 0)
(0.865828 -0.000302132 0)
(0.865822 -0.00030246 0)
(0.865818 -0.000302776 0)
(0.865814 -0.000302995 0)
(0.865811 -0.000303199 0)
(0.865809 -0.000303315 0)
(0.865807 -0.000303445 0)
(0.865805 -0.000303518 0)
(0.865804 -0.000303622 0)
(0.865803 -0.000303639 0)
(0.865803 -0.000303702 0)
(0.865802 -0.000303715 0)
(0.865802 -0.000303746 0)
(0.865801 -0.000303721 0)
(0.865801 -0.000303749 0)
(0.865801 -0.000303778 0)
(0.865801 -0.000303825 0)
(0.865801 -0.0003038 0)
(0.865801 -0.000303837 0)
(0.865801 -0.000303834 0)
(0.865801 -0.000303872 0)
(0.865801 -0.00030386 0)
(0.865801 -0.00030387 0)
(0.865801 -0.000303829 0)
(0.865801 -0.000303847 0)
(0.865801 -0.000303833 0)
(0.8658 -0.000303849 0)
(0.8658 -0.000303828 0)
(0.8658 -0.000303845 0)
(0.8658 -0.000303828 0)
(0.8658 -0.000303869 0)
(0.8658 -0.000303872 0)
(0.8658 -0.000303858 0)
(0.8658 -0.000303824 0)
(0.8658 -0.000303864 0)
(0.8658 -0.000303851 0)
(0.8658 -0.00030385 0)
(0.865801 -0.000303824 0)
(0.865801 -0.000303825 0)
(0.865801 -0.000303823 0)
(0.865801 -0.000303847 0)
(0.865801 -0.000303814 0)
(0.865801 -0.000303833 0)
(0.865801 -0.000303822 0)
(0.865801 -0.000303851 0)
(0.8658 -0.000303821 0)
(0.8658 -0.000303818 0)
(0.8658 -0.000303798 0)
(0.8658 -0.000303796 0)
(0.8658 -0.000303785 0)
(0.8658 -0.000303771 0)
(0.8658 -0.00030372 0)
(0.865799 -0.000303691 0)
(0.865798 -0.000303647 0)
(0.865798 -0.000303575 0)
(0.865796 -0.000303415 0)
(0.865794 -0.000303238 0)
(0.865792 -0.000302979 0)
(0.865788 -0.000302642 0)
(0.865783 -0.000302179 0)
(0.865776 -0.00030161 0)
(0.865766 -0.000300979 0)
(0.865754 -0.00030065 0)
(0.865742 -0.000300886 0)
(0.865723 -0.000301469 0)
(0.865718 -0.000293353 0)
(0.865545 -0.000239578 0)
(0.865252 -7.34539e-05 0)
(0.863186 -0.000219184 0)
(0.960328 0.135898 0)
(1.02535 0.0244285 0)
(0.976328 0.00334245 0)
(0.987419 0.000824477 0)
(0.983107 0.00010311 0)
(0.98501 0.000608118 0)
(0.983936 0.000613845 0)
(0.983842 0.000677983 0)
(0.983318 0.000630265 0)
(0.983039 0.00060683 0)
(0.982735 0.000573037 0)
(0.982512 0.000549809 0)
(0.982313 0.000528358 0)
(0.982152 0.00051178 0)
(0.982013 0.000498417 0)
(0.981897 0.000487646 0)
(0.981797 0.000478771 0)
(0.981712 0.000471278 0)
(0.981638 0.000464932 0)
(0.981575 0.000459438 0)
(0.981521 0.000454794 0)
(0.981475 0.00045071 0)
(0.981436 0.000447218 0)
(0.981402 0.000444163 0)
(0.981374 0.000441573 0)
(0.98135 0.000439346 0)
(0.98133 0.000437446 0)
(0.981313 0.000435777 0)
(0.981299 0.000434416 0)
(0.981288 0.000433212 0)
(0.981279 0.000432272 0)
(0.981271 0.000431398 0)
(0.981265 0.000430755 0)
(0.98126 0.000430153 0)
(0.981256 0.000429712 0)
(0.981253 0.000429307 0)
(0.98125 0.000429064 0)
(0.981248 0.000428801 0)
(0.981246 0.000428638 0)
(0.981245 0.000428429 0)
(0.981244 0.000428378 0)
(0.981243 0.000428275 0)
(0.981243 0.000428248 0)
(0.981242 0.00042817 0)
(0.981242 0.000428164 0)
(0.981241 0.000428095 0)
(0.981241 0.000428071 0)
(0.981241 0.000427998 0)
(0.981241 0.000428033 0)
(0.981241 0.00042797 0)
(0.981241 0.000427979 0)
(0.981241 0.000427945 0)
(0.981241 0.000427977 0)
(0.981241 0.000427918 0)
(0.981241 0.000427963 0)
(0.981241 0.000427939 0)
(0.981241 0.00042798 0)
(0.981241 0.00042794 0)
(0.981241 0.000427969 0)
(0.981241 0.000427937 0)
(0.981241 0.000427976 0)
(0.981241 0.000427946 0)
(0.981241 0.000427954 0)
(0.981241 0.000427937 0)
(0.981241 0.000427985 0)
(0.981241 0.000427941 0)
(0.981241 0.000427958 0)
(0.981241 0.000427932 0)
(0.981241 0.000427964 0)
(0.981241 0.000427942 0)
(0.981241 0.000427969 0)
(0.981241 0.000427924 0)
(0.981241 0.000427971 0)
(0.981241 0.000427957 0)
(0.981241 0.000427989 0)
(0.981241 0.000427956 0)
(0.981241 0.000427993 0)
(0.98124 0.000427985 0)
(0.98124 0.000428027 0)
(0.98124 0.000428046 0)
(0.98124 0.000428073 0)
(0.98124 0.000428083 0)
(0.98124 0.000428155 0)
(0.981239 0.000428216 0)
(0.981238 0.000428339 0)
(0.981237 0.000428491 0)
(0.981236 0.00042877 0)
(0.981234 0.000429112 0)
(0.981231 0.000429618 0)
(0.981228 0.000430277 0)
(0.981222 0.000431185 0)
(0.981215 0.000432274 0)
(0.981206 0.0004336 0)
(0.981193 0.000434562 0)
(0.981178 0.000435207 0)
(0.981152 0.000436336 0)
(0.981132 0.000458756 0)
(0.980909 0.000569036 0)
(0.980542 0.000943075 0)
(0.977594 0.00117801 0)
(0.984981 0.123283 0)
(1.05951 0.0286549 0)
(1.01376 0.00469067 0)
(1.02592 0.000700288 0)
(1.02101 -0.000185393 0)
(1.02312 0.000442463 0)
(1.02201 0.000480674 0)
(1.02202 0.000563283 0)
(1.02153 0.00050228 0)
(1.02131 0.000467914 0)
(1.02104 0.000420983 0)
(1.02085 0.000387621 0)
(1.02067 0.000357097 0)
(1.02053 0.000333145 0)
(1.02041 0.000313833 0)
(1.02031 0.000298666 0)
(1.02022 0.000286144 0)
(1.02015 0.000275594 0)
(1.02008 0.000266672 0)
(1.02003 0.000258929 0)
(1.01998 0.000252351 0)
(1.01994 0.000246545 0)
(1.0199 0.000241559 0)
(1.01987 0.000237213 0)
(1.01985 0.000233462 0)
(1.01982 0.000230213 0)
(1.01981 0.000227434 0)
(1.01979 0.000225012 0)
(1.01978 0.000223037 0)
(1.01977 0.000221261 0)
(1.01976 0.000219862 0)
(1.01975 0.000218584 0)
(1.01974 0.000217635 0)
(1.01974 0.000216772 0)
(1.01974 0.000216119 0)
(1.01973 0.000215512 0)
(1.01973 0.000215123 0)
(1.01973 0.000214728 0)
(1.01973 0.000214484 0)
(1.01973 0.000214188 0)
(1.01972 0.000214097 0)
(1.01972 0.000213945 0)
(1.01972 0.000213896 0)
(1.01972 0.000213772 0)
(1.01972 0.000213737 0)
(1.01972 0.000213633 0)
(1.01972 0.000213614 0)
(1.01972 0.000213518 0)
(1.01972 0.000213551 0)
(1.01972 0.000213469 0)
(1.01972 0.000213484 0)
(1.01972 0.000213433 0)
(1.01972 0.000213476 0)
(1.01972 0.000213392 0)
(1.01972 0.000213445 0)
(1.01972 0.000213414 0)
(1.01972 0.00021347 0)
(1.01972 0.000213412 0)
(1.01972 0.000213455 0)
(1.01972 0.00021342 0)
(1.01972 0.000213464 0)
(1.01972 0.000213438 0)
(1.01972 0.000213467 0)
(1.01972 0.000213421 0)
(1.01972 0.000213473 0)
(1.01972 0.000213425 0)
(1.01972 0.000213448 0)
(1.01972 0.000213403 0)
(1.01972 0.00021344 0)
(1.01972 0.000213398 0)
(1.01972 0.000213446 0)
(1.01972 0.000213394 0)
(1.01972 0.000213461 0)
(1.01972 0.000213442 0)
(1.01972 0.000213481 0)
(1.01972 0.00021345 0)
(1.01972 0.000213497 0)
(1.01972 0.000213487 0)
(1.01972 0.000213545 0)
(1.01972 0.000213573 0)
(1.01972 0.000213611 0)
(1.01972 0.000213622 0)
(1.01972 0.000213721 0)
(1.01972 0.000213809 0)
(1.01972 0.000214009 0)
(1.01972 0.000214242 0)
(1.01972 0.000214636 0)
(1.01971 0.000215138 0)
(1.01971 0.000215876 0)
(1.01971 0.000216842 0)
(1.0197 0.000218172 0)
(1.0197 0.000219786 0)
(1.01969 0.000221878 0)
(1.01968 0.000223711 0)
(1.01966 0.000226098 0)
(1.01963 0.000230488 0)
(1.0196 0.000271476 0)
(1.01935 0.000444054 0)
(1.01899 0.0010496 0)
(1.01589 0.00176926 0)
(0.988584 0.109957 0)
(1.06797 0.0309626 0)
(1.0256 0.00569647 0)
(1.03852 0.000547009 0)
(1.03319 -0.000407726 0)
(1.03547 0.000296815 0)
(1.03434 0.000369044 0)
(1.03445 0.000463111 0)
(1.03402 0.000393262 0)
(1.03386 0.000349886 0)
(1.03363 0.000292974 0)
(1.03348 0.000251729 0)
(1.03334 0.000214415 0)
(1.03323 0.000185031 0)
(1.03313 0.000161278 0)
(1.03305 0.000142497 0)
(1.03298 0.000126937 0)
(1.03291 0.000113825 0)
(1.03286 0.000102736 0)
(1.03281 9.30587e-05 0)
(1.03277 8.47878e-05 0)
(1.03274 7.74677e-05 0)
(1.03271 7.11303e-05 0)
(1.03268 6.55484e-05 0)
(1.03266 6.06348e-05 0)
(1.03264 5.6322e-05 0)
(1.03262 5.25844e-05 0)
(1.03261 4.9353e-05 0)
(1.0326 4.68146e-05 0)
(1.03259 4.45371e-05 0)
(1.03258 4.27443e-05 0)
(1.03257 4.11208e-05 0)
(1.03257 3.98987e-05 0)
(1.03256 3.87937e-05 0)
(1.03256 3.79428e-05 0)
(1.03256 3.71533e-05 0)
(1.03256 3.66262e-05 0)
(1.03255 3.61134e-05 0)
(1.03255 3.58004e-05 0)
(1.03255 3.54287e-05 0)
(1.03255 3.52881e-05 0)
(1.03255 3.50803e-05 0)
(1.03255 3.50118e-05 0)
(1.03255 3.48505e-05 0)
(1.03255 3.47984e-05 0)
(1.03255 3.46681e-05 0)
(1.03255 3.46471e-05 0)
(1.03255 3.45188e-05 0)
(1.03255 3.45373e-05 0)
(1.03255 3.44411e-05 0)
(1.03255 3.44649e-05 0)
(1.03255 3.43938e-05 0)
(1.03255 3.44412e-05 0)
(1.03255 3.43506e-05 0)
(1.03255 3.44219e-05 0)
(1.03255 3.43796e-05 0)
(1.03255 3.44386e-05 0)
(1.03255 3.43676e-05 0)
(1.03255 3.44252e-05 0)
(1.03255 3.43892e-05 0)
(1.03255 3.44349e-05 0)
(1.03255 3.4406e-05 0)
(1.03255 3.44515e-05 0)
(1.03255 3.43858e-05 0)
(1.03255 3.44445e-05 0)
(1.03255 3.43907e-05 0)
(1.03255 3.44166e-05 0)
(1.03255 3.43614e-05 0)
(1.03255 3.44096e-05 0)
(1.03255 3.43499e-05 0)
(1.03255 3.44056e-05 0)
(1.03255 3.43525e-05 0)
(1.03255 3.44357e-05 0)
(1.03255 3.4411e-05 0)
(1.03255 3.44537e-05 0)
(1.03255 3.44276e-05 0)
(1.03255 3.44899e-05 0)
(1.03255 3.44824e-05 0)
(1.03255 3.45466e-05 0)
(1.03255 3.45721e-05 0)
(1.03255 3.46199e-05 0)
(1.03255 3.46332e-05 0)
(1.03255 3.4759e-05 0)
(1.03255 3.48803e-05 0)
(1.03255 3.5143e-05 0)
(1.03254 3.5441e-05 0)
(1.03254 3.59389e-05 0)
(1.03254 3.65804e-05 0)
(1.03254 3.75144e-05 0)
(1.03254 3.87348e-05 0)
(1.03253 4.04268e-05 0)
(1.03253 4.25151e-05 0)
(1.03252 4.53591e-05 0)
(1.03251 4.82225e-05 0)
(1.03249 5.32136e-05 0)
(1.03246 6.2288e-05 0)
(1.03242 0.000123512 0)
(1.03218 0.000349156 0)
(1.03186 0.00116813 0)
(1.02902 0.002297 0)
(0.986405 0.0982744 0)
(1.06825 0.0321888 0)
(1.02898 0.00652205 0)
(1.04245 0.000501479 0)
(1.03682 -0.000473076 0)
(1.03924 0.000275905 0)
(1.03811 0.000379692 0)
(1.03832 0.000479732 0)
(1.03795 0.000405236 0)
(1.03785 0.000355624 0)
(1.03767 0.000292588 0)
(1.03756 0.000246582 0)
(1.03745 0.000205672 0)
(1.03736 0.000173725 0)
(1.03729 0.000147337 0)
(1.03722 0.000125845 0)
(1.03717 0.000108004 0)
(1.03712 9.2963e-05 0)
(1.03708 8.02426e-05 0)
(1.03704 6.91182e-05 0)
(1.03701 5.95982e-05 0)
(1.03698 5.11841e-05 0)
(1.03696 4.38779e-05 0)
(1.03694 3.74058e-05 0)
(1.03692 3.16995e-05 0)
(1.0369 2.66877e-05 0)
(1.03689 2.23378e-05 0)
(1.03688 1.85537e-05 0)
(1.03687 1.55463e-05 0)
(1.03686 1.28551e-05 0)
(1.03685 1.07385e-05 0)
(1.03685 8.81214e-06 0)
(1.03684 7.34122e-06 0)
(1.03684 6.0099e-06 0)
(1.03684 4.97639e-06 0)
(1.03683 4.01596e-06 0)
(1.03683 3.35824e-06 0)
(1.03683 2.72331e-06 0)
(1.03683 2.33147e-06 0)
(1.03683 1.86153e-06 0)
(1.03683 1.6636e-06 0)
(1.03683 1.40638e-06 0)
(1.03682 1.32223e-06 0)
(1.03682 1.12822e-06 0)
(1.03682 1.06152e-06 0)
(1.03682 9.07407e-07 0)
(1.03682 8.84773e-07 0)
(1.03682 7.25091e-07 0)
(1.03682 7.27524e-07 0)
(1.03682 6.17526e-07 0)
(1.03682 6.46921e-07 0)
(1.03682 5.56925e-07 0)
(1.03682 6.13787e-07 0)
(1.03682 5.23464e-07 0)
(1.03682 6.07216e-07 0)
(1.03682 5.5298e-07 0)
(1.03682 6.19526e-07 0)
(1.03682 5.44631e-07 0)
(1.03682 6.08432e-07 0)
(1.03682 5.6561e-07 0)
(1.03682 6.16079e-07 0)
(1.03682 5.83984e-07 0)
(1.03682 6.42954e-07 0)
(1.03682 5.61094e-07 0)
(1.03682 6.22884e-07 0)
(1.03682 5.63006e-07 0)
(1.03682 5.95035e-07 0)
(1.03682 5.30919e-07 0)
(1.03682 5.91912e-07 0)
(1.03682 5.1792e-07 0)
(1.03682 5.78983e-07 0)
(1.03682 5.27755e-07 0)
(1.03682 6.19823e-07 0)
(1.03682 5.89614e-07 0)
(1.03682 6.39015e-07 0)
(1.03682 6.18847e-07 0)
(1.03682 6.93884e-07 0)
(1.03682 6.82625e-07 0)
(1.03682 7.5073e-07 0)
(1.03682 7.7159e-07 0)
(1.03682 8.31399e-07 0)
(1.03682 8.4817e-07 0)
(1.03682 9.96507e-07 0)
(1.03682 1.14913e-06 0)
(1.03682 1.46392e-06 0)
(1.03682 1.82171e-06 0)
(1.03682 2.43672e-06 0)
(1.03682 3.21156e-06 0)
(1.03682 4.32553e-06 0)
(1.03681 5.77026e-06 0)
(1.03681 7.78252e-06 0)
(1.03681 1.0302e-05 0)
(1.0368 1.38695e-05 0)
(1.03679 1.78407e-05 0)
(1.03678 2.55204e-05 0)
(1.03674 3.92901e-05 0)
(1.0367 0.000119243 0)
(1.03647 0.000383825 0)
(1.03621 0.00139847 0)
(1.03382 0.00284679 0)
(0.983105 0.0876662 0)
(1.06612 0.0325016 0)
(1.0296 0.00711393 0)
(1.04349 0.000477744 0)
(1.03764 -0.000486487 0)
(1.04017 0.000280843 0)
(1.03905 0.000414683 0)
(1.03935 0.000518612 0)
(1.03903 0.000441695 0)
(1.03899 0.000387255 0)
(1.03886 0.000319464 0)
(1.03879 0.000269406 0)
(1.03871 0.000225156 0)
(1.03865 0.000190508 0)
(1.03859 0.000161888 0)
(1.03855 0.000138516 0)
(1.03851 0.000119128 0)
(1.03847 0.000102776 0)
(1.03844 8.89625e-05 0)
(1.03842 7.68934e-05 0)
(1.03839 6.65778e-05 0)
(1.03837 5.74801e-05 0)
(1.03835 4.95874e-05 0)
(1.03834 4.26115e-05 0)
(1.03832 3.65113e-05 0)
(1.03831 3.11915e-05 0)
(1.0383 2.66039e-05 0)
(1.03829 2.25467e-05 0)
(1.03828 1.91869e-05 0)
(1.03828 1.61746e-05 0)
(1.03827 1.37968e-05 0)
(1.03827 1.16164e-05 0)
(1.03826 9.92852e-06 0)
(1.03826 8.40324e-06 0)
(1.03826 7.21618e-06 0)
(1.03826 6.10601e-06 0)
(1.03825 5.32859e-06 0)
(1.03825 4.57052e-06 0)
(1.03825 4.10055e-06 0)
(1.03825 3.55565e-06 0)
(1.03825 3.31213e-06 0)
(1.03825 3.0087e-06 0)
(1.03825 2.90489e-06 0)
(1.03825 2.68032e-06 0)
(1.03825 2.60213e-06 0)
(1.03825 2.42797e-06 0)
(1.03825 2.40258e-06 0)
(1.03825 2.2174e-06 0)
(1.03825 2.20926e-06 0)
(1.03825 2.08685e-06 0)
(1.03825 2.12056e-06 0)
(1.03825 2.01448e-06 0)
(1.03825 2.08349e-06 0)
(1.03825 1.99447e-06 0)
(1.03825 2.08524e-06 0)
(1.03825 2.02321e-06 0)
(1.03825 2.09958e-06 0)
(1.03825 2.02118e-06 0)
(1.03825 2.0853e-06 0)
(1.03825 2.03379e-06 0)
(1.03825 2.09331e-06 0)
(1.03825 2.05685e-06 0)
(1.03825 2.12801e-06 0)
(1.03825 2.03488e-06 0)
(1.03825 2.09664e-06 0)
(1.03825 2.02953e-06 0)
(1.03825 2.06724e-06 0)
(1.03825 1.99477e-06 0)
(1.03825 2.06824e-06 0)
(1.03825 1.98411e-06 0)
(1.03825 2.0499e-06 0)
(1.03825 2.00041e-06 0)
(1.03825 2.09677e-06 0)
(1.03825 2.06229e-06 0)
(1.03825 2.11893e-06 0)
(1.03825 2.10089e-06 0)
(1.03825 2.18402e-06 0)
(1.03825 2.17019e-06 0)
(1.03825 2.24467e-06 0)
(1.03825 2.25924e-06 0)
(1.03825 2.33031e-06 0)
(1.03825 2.352e-06 0)
(1.03825 2.51717e-06 0)
(1.03825 2.69345e-06 0)
(1.03825 3.04972e-06 0)
(1.03825 3.45786e-06 0)
(1.03825 4.15568e-06 0)
(1.03824 5.04873e-06 0)
(1.03824 6.31909e-06 0)
(1.03824 7.95694e-06 0)
(1.03824 1.0243e-05 0)
(1.03824 1.31422e-05 0)
(1.03823 1.73859e-05 0)
(1.03822 2.24711e-05 0)
(1.03821 3.26494e-05 0)
(1.03818 5.06275e-05 0)
(1.03814 0.00014698 0)
(1.03794 0.000446064 0)
(1.03774 0.00162562 0)
(1.03587 0.00331287 0)
(0.980016 0.0779581 0)
(1.06351 0.0320482 0)
(1.02938 0.00745858 0)
(1.04357 0.000442117 0)
(1.03756 -0.000491082 0)
(1.04018 0.00027609 0)
(1.03906 0.000436637 0)
(1.03945 0.000542249 0)
(1.03918 0.000465152 0)
(1.0392 0.000407599 0)
(1.0391 0.000336935 0)
(1.03907 0.000284162 0)
(1.03902 0.000237625 0)
(1.03898 0.000201005 0)
(1.03895 0.000170866 0)
(1.03892 0.000146306 0)
(1.0389 0.000125944 0)
(1.03888 0.000108747 0)
(1.03886 9.42242e-05 0)
(1.03884 8.15296e-05 0)
(1.03882 7.06582e-05 0)
(1.03881 6.10571e-05 0)
(1.0388 5.27117e-05 0)
(1.03879 4.53313e-05 0)
(1.03878 3.88845e-05 0)
(1.03877 3.32386e-05 0)
(1.03876 2.83529e-05 0)
(1.03876 2.40135e-05 0)
(1.03875 2.04138e-05 0)
(1.03875 1.71735e-05 0)
(1.03874 1.46051e-05 0)
(1.03874 1.22477e-05 0)
(1.03874 1.04055e-05 0)
(1.03873 8.74978e-06 0)
(1.03873 7.46708e-06 0)
(1.03873 6.26736e-06 0)
(1.03873 5.417e-06 0)
(1.03873 4.58978e-06 0)
(1.03873 4.09077e-06 0)
(1.03873 3.51042e-06 0)
(1.03873 3.22573e-06 0)
(1.03872 2.86167e-06 0)
(1.03872 2.73382e-06 0)
(1.03872 2.48409e-06 0)
(1.03872 2.39665e-06 0)
(1.03872 2.20368e-06 0)
(1.03872 2.17376e-06 0)
(1.03872 1.9707e-06 0)
(1.03872 1.95761e-06 0)
(1.03872 1.82239e-06 0)
(1.03872 1.86063e-06 0)
(1.03872 1.74377e-06 0)
(1.03872 1.82554e-06 0)
(1.03872 1.73929e-06 0)
(1.03872 1.83312e-06 0)
(1.03872 1.76572e-06 0)
(1.03872 1.84907e-06 0)
(1.03872 1.7657e-06 0)
(1.03872 1.82907e-06 0)
(1.03872 1.77062e-06 0)
(1.03872 1.8392e-06 0)
(1.03872 1.79567e-06 0)
(1.03872 1.87707e-06 0)
(1.03872 1.778e-06 0)
(1.03872 1.839e-06 0)
(1.03872 1.76554e-06 0)
(1.03872 1.80867e-06 0)
(1.03872 1.72734e-06 0)
(1.03872 1.81065e-06 0)
(1.03872 1.72252e-06 0)
(1.03872 1.79177e-06 0)
(1.03872 1.74107e-06 0)
(1.03872 1.83751e-06 0)
(1.03872 1.80116e-06 0)
(1.03872 1.86485e-06 0)
(1.03872 1.84648e-06 0)
(1.03872 1.93634e-06 0)
(1.03872 1.9218e-06 0)
(1.03872 2.00261e-06 0)
(1.03872 2.00862e-06 0)
(1.03872 2.08923e-06 0)
(1.03872 2.11704e-06 0)
(1.03872 2.29511e-06 0)
(1.03872 2.48702e-06 0)
(1.03872 2.87652e-06 0)
(1.03872 3.34066e-06 0)
(1.03872 4.07329e-06 0)
(1.03872 5.00685e-06 0)
(1.03872 6.3496e-06 0)
(1.03872 8.09931e-06 0)
(1.03872 1.05689e-05 0)
(1.03871 1.37602e-05 0)
(1.03871 1.85885e-05 0)
(1.0387 2.4726e-05 0)
(1.03869 3.75248e-05 0)
(1.03866 5.97893e-05 0)
(1.03863 0.000170547 0)
(1.03847 0.00049596 0)
(1.03834 0.00179839 0)
(1.03701 0.00365048 0)
(0.977427 0.0691153 0)
(1.06098 0.0309898 0)
(1.02893 0.00758107 0)
(1.04334 0.000397827 0)
(1.03722 -0.000490556 0)
(1.0399 0.000262069 0)
(1.03879 0.000444438 0)
(1.03925 0.000549564 0)
(1.03903 0.000474309 0)
(1.0391 0.000415433 0)
(1.03904 0.000343922 0)
(1.03904 0.000290028 0)
(1.03902 0.000242598 0)
(1.03901 0.000205131 0)
(1.03899 0.000174351 0)
(1.03898 0.000149273 0)
(1.03897 0.000128492 0)
(1.03896 0.00011092 0)
(1.03895 9.60771e-05 0)
(1.03895 8.30863e-05 0)
(1.03894 7.19316e-05 0)
(1.03893 6.20672e-05 0)
(1.03893 5.34716e-05 0)
(1.03892 4.58575e-05 0)
(1.03891 3.91973e-05 0)
(1.03891 3.33289e-05 0)
(1.03891 2.82379e-05 0)
(1.0389 2.37039e-05 0)
(1.0389 1.99662e-05 0)
(1.0389 1.6584e-05 0)
(1.03889 1.39004e-05 0)
(1.03889 1.14478e-05 0)
(1.03889 9.51353e-06 0)
(1.03889 7.78136e-06 0)
(1.03889 6.45254e-06 0)
(1.03889 5.21771e-06 0)
(1.03888 4.3378e-06 0)
(1.03888 3.49094e-06 0)
(1.03888 3.00054e-06 0)
(1.03888 2.40892e-06 0)
(1.03888 2.09754e-06 0)
(1.03888 1.6943e-06 0)
(1.03888 1.54429e-06 0)
(1.03888 1.27506e-06 0)
(1.03888 1.17917e-06 0)
(1.03888 9.63619e-07 0)
(1.03888 9.26195e-07 0)
(1.03888 7.08483e-07 0)
(1.03888 6.949e-07 0)
(1.03888 5.47132e-07 0)
(1.03888 5.89969e-07 0)
(1.03888 4.68007e-07 0)
(1.03888 5.62055e-07 0)
(1.03888 4.79885e-07 0)
(1.03888 5.71897e-07 0)
(1.03888 4.98588e-07 0)
(1.03888 5.85827e-07 0)
(1.03888 4.99665e-07 0)
(1.03888 5.64449e-07 0)
(1.03888 5.01162e-07 0)
(1.03888 5.74757e-07 0)
(1.03888 5.21096e-07 0)
(1.03888 6.10799e-07 0)
(1.03888 5.11188e-07 0)
(1.03888 5.70571e-07 0)
(1.03888 4.91583e-07 0)
(1.03888 5.40653e-07 0)
(1.03888 4.49303e-07 0)
(1.03888 5.37344e-07 0)
(1.03888 4.52088e-07 0)
(1.03888 5.22434e-07 0)
(1.03888 4.68816e-07 0)
(1.03888 5.63064e-07 0)
(1.03888 5.29054e-07 0)
(1.03888 6.0125e-07 0)
(1.03888 5.83274e-07 0)
(1.03888 6.77329e-07 0)
(1.03888 6.59478e-07 0)
(1.03888 7.43949e-07 0)
(1.03888 7.40709e-07 0)
(1.03888 8.28668e-07 0)
(1.03888 8.66574e-07 0)
(1.03888 1.06035e-06 0)
(1.03888 1.26354e-06 0)
(1.03888 1.67646e-06 0)
(1.03888 2.16433e-06 0)
(1.03888 2.90534e-06 0)
(1.03888 3.81926e-06 0)
(1.03888 5.16457e-06 0)
(1.03888 6.95001e-06 0)
(1.03888 9.51618e-06 0)
(1.03888 1.29104e-05 0)
(1.03887 1.82092e-05 0)
(1.03887 2.52625e-05 0)
(1.03886 4.04385e-05 0)
(1.03884 6.64808e-05 0)
(1.03881 0.000188448 0)
(1.03869 0.000530242 0)
(1.03863 0.00191138 0)
(1.03784 0.00385963 0)
(0.97533 0.0610411 0)
(1.05871 0.0294537 0)
(1.02846 0.00751019 0)
(1.04304 0.000351287 0)
(1.03682 -0.000483242 0)
(1.03954 0.000242643 0)
(1.03844 0.000440979 0)
(1.03897 0.000543735 0)
(1.03879 0.000471937 0)
(1.03891 0.000413345 0)
(1.03889 0.000342773 0)
(1.03892 0.000289196 0)
(1.03892 0.000242129 0)
(1.03893 0.000204842 0)
(1.03893 0.000174225 0)
(1.03894 0.000149256 0)
(1.03894 0.000128575 0)
(1.03895 0.000111071 0)
(1.03895 9.6279e-05 0)
(1.03895 8.33123e-05 0)
(1.03895 7.216e-05 0)
(1.03895 6.2288e-05 0)
(1.03895 5.3666e-05 0)
(1.03895 4.60127e-05 0)
(1.03895 3.93088e-05 0)
(1.03894 3.33775e-05 0)
(1.03894 2.82344e-05 0)
(1.03894 2.36291e-05 0)
(1.03894 1.9843e-05 0)
(1.03894 1.6399e-05 0)
(1.03894 1.36689e-05 0)
(1.03894 1.11823e-05 0)
(1.03894 9.1991e-06 0)
(1.03894 7.42093e-06 0)
(1.03894 6.07129e-06 0)
(1.03894 4.82479e-06 0)
(1.03894 3.93032e-06 0)
(1.03894 3.06875e-06 0)
(1.03894 2.58285e-06 0)
(1.03894 1.99968e-06 0)
(1.03893 1.68538e-06 0)
(1.03893 1.27505e-06 0)
(1.03893 1.11147e-06 0)
(1.03893 8.35969e-07 0)
(1.03893 7.38499e-07 0)
(1.03893 5.12637e-07 0)
(1.03893 4.68466e-07 0)
(1.03893 2.44734e-07 0)
(1.03893 2.35308e-07 0)
(1.03893 7.47635e-08 0)
(1.03893 1.22173e-07 0)
(1.03893 -2.27136e-09 0)
(1.03893 1.02425e-07 0)
(1.03893 2.31189e-08 0)
(1.03893 1.11363e-07 0)
(1.03893 3.13639e-08 0)
(1.03893 1.2268e-07 0)
(1.03893 3.65803e-08 0)
(1.03893 1.07368e-07 0)
(1.03893 3.93211e-08 0)
(1.03893 1.13304e-07 0)
(1.03893 4.77042e-08 0)
(1.03893 1.41208e-07 0)
(1.03893 4.65692e-08 0)
(1.03893 1.00071e-07 0)
(1.03893 1.68752e-08 0)
(1.03893 7.09602e-08 0)
(1.03893 -2.88591e-08 0)
(1.03893 5.86978e-08 0)
(1.03893 -1.98925e-08 0)
(1.03893 5.19895e-08 0)
(1.03893 -3.85404e-09 0)
(1.03893 9.12789e-08 0)
(1.03893 6.18706e-08 0)
(1.03893 1.4361e-07 0)
(1.03893 1.24217e-07 0)
(1.03893 2.19417e-07 0)
(1.03893 1.94812e-07 0)
(1.03893 2.80502e-07 0)
(1.03893 2.69058e-07 0)
(1.03893 3.62588e-07 0)
(1.03893 4.0724e-07 0)
(1.03893 6.02205e-07 0)
(1.03893 8.0326e-07 0)
(1.03893 1.21951e-06 0)
(1.03893 1.69023e-06 0)
(1.03893 2.41758e-06 0)
(1.03893 3.31517e-06 0)
(1.03893 4.65312e-06 0)
(1.03893 6.44364e-06 0)
(1.03893 9.05382e-06 0)
(1.03893 1.25789e-05 0)
(1.03893 1.82269e-05 0)
(1.03893 2.60097e-05 0)
(1.03892 4.30919e-05 0)
(1.03891 7.20397e-05 0)
(1.03889 0.000201382 0)
(1.03882 0.000549885 0)
(1.03882 0.00196685 0)
(1.03856 0.00394852 0)
(0.973645 0.0536148 0)
(1.05672 0.0275333 0)
(1.02804 0.00726984 0)
(1.04273 0.000305557 0)
(1.03644 -0.000468786 0)
(1.03919 0.000219698 0)
(1.0381 0.000427492 0)
(1.03868 0.000526211 0)
(1.03854 0.00045911 0)
(1.0387 0.000402211 0)
(1.03871 0.00033411 0)
(1.03877 0.000282097 0)
(1.03879 0.000236477 0)
(1.03882 0.00020025 0)
(1.03885 0.000170499 0)
(1.03887 0.000146207 0)
(1.03888 0.000126096 0)
(1.0389 0.000109057 0)
(1.03891 9.46537e-05 0)
(1.03892 8.2003e-05 0)
(1.03892 7.11221e-05 0)
(1.03893 6.14737e-05 0)
(1.03893 5.30334e-05 0)
(1.03894 4.55215e-05 0)
(1.03894 3.89353e-05 0)
(1.03894 3.30937e-05 0)
(1.03895 2.8039e-05 0)
(1.03895 2.34815e-05 0)
(1.03895 1.97359e-05 0)
(1.03895 1.63104e-05 0)
(1.03895 1.35979e-05 0)
(1.03895 1.11292e-05 0)
(1.03895 9.1443e-06 0)
(1.03895 7.35775e-06 0)
(1.03895 6.0152e-06 0)
(1.03895 4.78099e-06 0)
(1.03895 3.89008e-06 0)
(1.03895 3.02229e-06 0)
(1.03895 2.53598e-06 0)
(1.03895 1.95619e-06 0)
(1.03895 1.63981e-06 0)
(1.03895 1.21912e-06 0)
(1.03895 1.05046e-06 0)
(1.03895 7.80796e-07 0)
(1.03895 6.89676e-07 0)
(1.03895 4.66865e-07 0)
(1.03895 4.20038e-07 0)
(1.03895 1.98291e-07 0)
(1.03895 1.97632e-07 0)
(1.03895 2.83008e-08 0)
(1.03895 7.66381e-08 0)
(1.03895 -4.80798e-08 0)
(1.03895 5.99558e-08 0)
(1.03895 -1.66594e-08 0)
(1.03895 6.79513e-08 0)
(1.03895 -1.50392e-08 0)
(1.03895 7.9862e-08 0)
(1.03895 -2.42045e-09 0)
(1.03895 7.78066e-08 0)
(1.03895 5.90619e-09 0)
(1.03895 7.58946e-08 0)
(1.03895 -3.94352e-09 0)
(1.03895 9.0174e-08 0)
(1.03895 -3.53544e-10 0)
(1.03895 4.69673e-08 0)
(1.03895 -4.17447e-08 0)
(1.03895 1.92419e-08 0)
(1.03895 -8.60532e-08 0)
(1.03895 -2.62287e-09 0)
(1.03895 -7.18044e-08 0)
(1.03895 4.97735e-09 0)
(1.03895 -5.05178e-08 0)
(1.03895 4.85162e-08 0)
(1.03895 2.39744e-08 0)
(1.03895 1.10331e-07 0)
(1.03895 8.67483e-08 0)
(1.03895 1.79159e-07 0)
(1.03895 1.47378e-07 0)
(1.03895 2.32178e-07 0)
(1.03895 2.13682e-07 0)
(1.03895 3.09871e-07 0)
(1.03895 3.55501e-07 0)
(1.03895 5.37186e-07 0)
(1.03895 7.22237e-07 0)
(1.03895 1.12649e-06 0)
(1.03895 1.58695e-06 0)
(1.03895 2.3087e-06 0)
(1.03895 3.19188e-06 0)
(1.03895 4.51158e-06 0)
(1.03895 6.27984e-06 0)
(1.03895 8.88152e-06 0)
(1.03895 1.24564e-05 0)
(1.03895 1.83087e-05 0)
(1.03895 2.65863e-05 0)
(1.03895 4.49876e-05 0)
(1.03895 7.58148e-05 0)
(1.03893 0.000208488 0)
(1.03892 0.000554582 0)
(1.03898 0.00196668 0)
(1.03921 0.00392519 0)
(0.972294 0.0467291 0)
(1.055 0.0253018 0)
(1.02767 0.00688085 0)
(1.04244 0.000262057 0)
(1.0361 -0.000447087 0)
(1.03886 0.000194565 0)
(1.03777 0.000404916 0)
(1.03841 0.000498053 0)
(1.0383 0.000436594 0)
(1.03849 0.00038262 0)
(1.03853 0.000318324 0)
(1.03862 0.000268971 0)
(1.03867 0.000225747 0)
(1.03872 0.000191353 0)
(1.03875 0.000163091 0)
(1.03879 0.000139986 0)
(1.03881 0.000120866 0)
(1.03884 0.000104649 0)
(1.03886 9.09426e-05 0)
(1.03887 7.88727e-05 0)
(1.03889 6.85062e-05 0)
(1.0389 5.92872e-05 0)
(1.03891 5.12205e-05 0)
(1.03892 4.40183e-05 0)
(1.03893 3.77009e-05 0)
(1.03893 3.20853e-05 0)
(1.03894 2.72396e-05 0)
(1.03894 2.28401e-05 0)
(1.03894 1.92232e-05 0)
(1.03895 1.58942e-05 0)
(1.03895 1.32613e-05 0)
(1.03895 1.08631e-05 0)
(1.03895 8.93371e-06 0)
(1.03895 7.18654e-06 0)
(1.03895 5.88419e-06 0)
(1.03896 4.69085e-06 0)
(1.03896 3.83207e-06 0)
(1.03896 2.9807e-06 0)
(1.03896 2.49944e-06 0)
(1.03896 1.92888e-06 0)
(1.03896 1.62008e-06 0)
(1.03896 1.19439e-06 0)
(1.03896 1.02785e-06 0)
(1.03896 7.66344e-07 0)
(1.03896 6.85326e-07 0)
(1.03896 4.62585e-07 0)
(1.03896 4.15887e-07 0)
(1.03896 1.95168e-07 0)
(1.03896 2.07303e-07 0)
(1.03896 3.39264e-08 0)
(1.03896 7.94225e-08 0)
(1.03896 -4.37706e-08 0)
(1.03896 5.99667e-08 0)
(1.03896 -1.3909e-08 0)
(1.03896 7.0195e-08 0)
(1.03896 -1.12965e-08 0)
(1.03896 8.59406e-08 0)
(1.03896 8.60658e-09 0)
(1.03896 9.94074e-08 0)
(1.03896 2.40755e-08 0)
(1.03896 8.60908e-08 0)
(1.03896 -9.12877e-09 0)
(1.03896 8.42243e-08 0)
(1.03896 -4.9019e-09 0)
(1.03896 4.05116e-08 0)
(1.03896 -5.47738e-08 0)
(1.03896 1.64234e-08 0)
(1.03896 -9.25576e-08 0)
(1.03896 -1.28683e-08 0)
(1.03896 -7.15917e-08 0)
(1.03896 1.28141e-08 0)
(1.03896 -4.1291e-08 0)
(1.03896 6.18313e-08 0)
(1.03896 4.06816e-08 0)
(1.03896 1.23247e-07 0)
(1.03896 9.43231e-08 0)
(1.03896 1.83088e-07 0)
(1.03896 1.46148e-07 0)
(1.03896 2.29123e-07 0)
(1.03896 2.03916e-07 0)
(1.03896 2.98157e-07 0)
(1.03896 3.43341e-07 0)
(1.03896 5.16784e-07 0)
(1.03896 6.83829e-07 0)
(1.03896 1.07056e-06 0)
(1.03896 1.51412e-06 0)
(1.03896 2.22164e-06 0)
(1.03896 3.07478e-06 0)
(1.03896 4.34896e-06 0)
(1.03896 6.05886e-06 0)
(1.03896 8.59207e-06 0)
(1.03896 1.2122e-05 0)
(1.03896 1.80108e-05 0)
(1.03897 2.65093e-05 0)
(1.03897 4.55665e-05 0)
(1.03897 7.71659e-05 0)
(1.03896 0.00020909 0)
(1.03901 0.000544168 0)
(1.03912 0.00191344 0)
(1.03982 0.00379824 0)
(0.971213 0.0402946 0)
(1.05353 0.022818 0)
(1.02735 0.00636234 0)
(1.04219 0.000221553 0)
(1.03579 -0.000417925 0)
(1.03856 0.000168502 0)
(1.03748 0.000374397 0)
(1.03816 0.000460494 0)
(1.03808 0.000405381 0)