/*--------------------------------*- C++ -*----------------------------------*\
| =========                 |                                                 |
| \\      /  F ield         | OpenFOAM: The Open Source CFD Toolbox           |
|  \\    /   O peration     | Version:  2.3.0                                 |
|   \\  /    A nd           | Web:      www.OpenFOAM.org                      |
|    \\/     M anipulation  |                                                 |
\*---------------------------------------------------------------------------*/
FoamFile
{
    version     2.0;
    format      ascii;
    class       volScalarField;
    location    "0.65";
    object      T;
}
// * * * * * * * * * * * * * * * * * * * * * * * * * * * * * * * * * * * * * //

dimensions      [0 0 0 1 0 0 0];

internalField   nonuniform List<scalar> 
2268
(
270
270
270
270
270
270
270
270
270
270
270
270
270
270
270
270
270
270
270
270
270
270
270
270
270
270
270
270
270
270
270
270
270
270
270
270
270
270
270
270
270
270
270
270
270
270
270
270
270
270
270
270
270.002
270.004
270.002
270
270
270
270
270
270
270
270
270
270
270
270
270
270
270
270
270
270
270
270.002
270.004
270.006
270.007
270.004
270.001
270
270
270
270
270
270
270
270
270
270
270
270
270
270
270
270
270.001
270.005
269.999
269.986
269.993
270.004
270.003
270.001
270
270
270
270
270
270
270
270
270
270
270
270
270
270
270
270
269.998
269.975
269.934
269.933
269.975
270
270.003
270.001
270
270
270
270
270
270
270
270
270
270
270
269.998
269.985
269.973
269.968
269.96
269.926
269.866
269.836
269.894
269.968
270
270.004
270.003
270.002
270.001
270
270
270
270
270
270
270
269.981
269.898
269.892
269.904
269.914
269.914
269.894
269.844
269.784
269.795
269.879
269.955
269.991
270.003
270.006
270.007
270.006
270.004
270.002
270.001
270
270
269.999
270.005
270.006
270.005
270.004
270.002
270.003
270.007
270
269.987
269.99
269.991
269.992
269.992
269.992
269.992
269.992
269.991
269.989
269.991
270.005
270.004
270.001
269.998
269.993
269.995
270
269.995
269.991
269.998
270.002
270.004
270.005
270.006
270.008
270.008
270.004
269.992
269.98
270.005
270.004
270
269.994
269.987
269.986
269.994
269.993
269.999
270.029
270.074
270.096
270.101
270.091
270.071
270.051
270.034
270.004
269.97
270.004
270.002
269.998
269.99
269.981
269.979
269.989
269.992
270.02
270.109
270.252
270.514
270.454
270.348
270.227
270.134
270.075
270.024
269.965
270.003
270.002
269.996
269.985
269.976
269.974
269.986
269.992
270.028
270.194
270.374
270.45
270.529
270.51
270.364
270.209
270.119
270.05
269.959
270.001
270.001
269.993
269.98
269.973
269.971
269.983
269.992
270.024
270.182
270.351
270.467
270.665
270.685
270.51
270.282
270.163
270.077
269.958
269.999
269.998
269.988
269.977
269.974
269.973
269.981
269.992
270.014
270.137
270.316
270.503
270.822
270.909
270.684
270.368
270.207
270.105
269.961
270.003
269.995
269.983
269.978
269.982
269.982
269.981
269.991
270.006
270.098
270.233
270.548
270.965
271.061
270.799
270.47
270.267
270.133
269.966
270.022
270.18
270.279
270.257
270.182
270.16
270.225
270.193
270.05
269.921
269.867
269.864
269.884
269.911
269.935
269.962
269.984
269.996
270.001
270.003
270.004
270.003
270.002
271.668
272.044
271.457
271.404
271.42
271.462
271.277
270.94
270.683
270.489
270.334
270.19
270.094
270.001
269.916
269.852
269.836
269.857
269.896
269.918
269.935
269.948
269.962
270.678
272.179
272.587
271.999
270.832
270.359
270.416
270.405
270.414
270.484
270.574
270.619
270.51
270.394
270.273
270.176
270.159
270.155
270.082
269.989
269.926
269.913
269.926
270.053
271.067
271.259
271.469
272.818
272.274
271.49
270.969
270.609
270.195
269.704
269.602
269.76
269.865
269.96
270.038
270.115
270.113
270.132
270.139
270.137
270.129
270.112
269.964
270.19
270.285
270.069
270.935
272.257
272.123
272.317
273.652
273.971
271.783
269.848
269.68
269.894
270.019
269.855
269.852
269.962
269.976
270.001
270.048
270.077
270.063
269.998
269.946
269.931
269.846
269.78
270.503
271.034
273.151
275.812
274.896
272.634
271.029
270.147
270.214
271.239
270.938
270.192
270.187
270.11
270.012
269.972
270.004
270.017
270.009
269.992
269.949
269.888
269.59
269.71
270.889
274.215
277.497
275.854
271.857
269.863
269.883
271.427
273.425
273.049
271.941
271.533
270.958
270.309
269.954
269.974
270.007
270.006
270.021
270.014
269.901
269.552
269.559
271.165
275.223
279.043
278.53
275.115
271.695
270.335
272.887
276.543
276.521
275.113
273.808
272.137
270.728
270.044
269.981
270.025
270.001
270.015
270.034
269.925
269.56
269.433
270.912
274.919
279.453
281.299
280.21
277.749
276.386
278.457
280.986
280.452
278.678
276.252
273.251
271.033
270.102
269.988
270.16
269.999
270.006
270.032
269.975
269.65
269.322
270.229
273.55
278.365
282.345
284.347
284.661
284.49
285.313
285.864
284.531
281.86
277.819
273.403
270.732
270.1
270.244
270.282
269.999
270.002
270.022
270.017
269.787
269.35
269.591
271.853
276.264
281.445
285.97
289.016
290.424
290.77
290.29
288.541
284.844
278.958
273.163
270.326
270.038
270.26
270.268
269.999
270.001
270.013
270.035
269.914
269.499
269.255
270.444
273.988
279.479
285.573
290.681
293.601
294.345
293.891
292.215
287.784
280.374
273.379
270.234
270.045
270.251
270.249
270
270
270.005
270.033
269.996
269.69
269.23
269.592
272.103
277.201
283.914
290.278
294.427
296.072
296.352
295.19
290.554
282.218
274.202
270.401
270.005
270.238
270.285
270.001
270.001
270.001
270.022
270.032
269.855
269.4
269.257
270.75
274.899
281.297
288.052
293.06
295.799
297.191
296.934
292.702
284.062
275.228
270.644
269.92
270.206
270.322
270.001
270.001
270
270.011
270.035
269.964
269.635
269.281
269.919
272.769
278.019
284.283
289.633
293.348
295.967
296.975
293.861
285.708
276.409
270.984
269.84
270.173
270.459
270.001
270.001
270
270.004
270.024
270.015
269.836
269.492
269.562
271.1
274.697
279.698
284.695
288.922
292.564
295.009
293.745
287.152
278.08
271.746
269.864
270.1
270.671
270.001
270.001
270.001
270.001
270.011
270.024
269.962
269.739
269.561
270.096
272.022
275.322
279.276
283.302
287.392
290.996
291.879
287.828
280.085
273.177
270.165
269.95
270.398
270.001
270.002
270.001
270
270.003
270.016
270.015
269.922
269.731
269.718
270.379
272.024
274.533
277.668
281.417
285.424
288
286.809
281.524
275.065
270.974
269.905
270.101
270.001
270.002
270.002
270.001
270
270.006
270.021
270.011
269.906
269.732
269.711
270.163
271.288
273.166
275.9
279.384
282.609
283.665
281.306
276.578
272.257
270.204
269.908
270.001
270.002
270.002
270.001
270
270
270.011
270.029
270.006
269.877
269.665
269.534
269.723
270.447
271.91
274.217
276.975
279.013
279
276.675
273.358
270.883
269.925
270.001
270.002
270.002
270.002
270.001
269.999
270.002
270.016
270.029
269.988
269.841
269.608
269.411
269.427
269.857
270.892
272.533
274.32
275.383
275.032
273.399
271.458
270.187
270.001
270.002
270.002
270.002
270.001
270
269.999
270.003
270.017
270.025
269.986
269.862
269.664
269.459
269.36
269.518
270.074
271.004
271.984
272.511
272.252
271.362
270.402
270.001
270.002
270.002
270.001
270.001
270.001
270
269.998
270.003
270.017
270.031
270.015
269.942
269.8
269.612
269.436
269.381
269.557
269.974
270.465
270.756
270.675
270.308
270.002
270.001
270.001
270.001
270.001
270.001
270
269.999
269.998
270.003
270.019
270.04
270.048
270.018
269.929
269.777
269.591
269.45
269.443
269.598
269.836
270.017
270.045
270.001
270.001
270.001
270.001
270.001
270.001
270.001
270
269.999
269.998
270.002
270.015
270.036
270.054
270.052
270.01
269.917
269.787
269.673
269.63
269.681
269.792
269.898
270.001
270.001
270.001
270.001
270
270
270
270.001
270
269.999
269.997
269.998
270.005
270.019
270.037
270.051
270.046
270.012
269.955
269.898
269.869
269.881
269.924
270.001
270
270
270
270
270
270
270
270
270
269.999
269.997
269.995
269.997
270.004
270.017
270.034
270.046
270.046
270.031
270.01
269.993
269.99
270.001
270
270
270
270
270
270
270
270
270
270
269.999
269.998
269.996
269.995
269.997
270.004
270.014
270.025
270.031
270.029
270.021
270.012
270.001
270
270
270
270
270
270
269.999
269.999
269.999
269.999
270
270
270
269.998
269.997
269.996
269.997
270
270.004
270.007
270.007
270.005
270
270
270
270
270
270
270
269.999
269.999
269.999
269.999
270
270
270.001
270.001
270
269.999
269.998
269.996
269.996
269.997
269.998
269.999
270
270.001
270
270
270
270
269.999
269.999
269.998
269.998
269.999
269.999
270
270
270.001
270.001
270.001
270
269.999
269.998
269.998
269.998
269.998
270
270.001
270.001
270.001
270
270
269.999
269.999
269.998
269.999
269.999
270
270
270
270
270
270
270
270
270
269.999
269.999
269.999
270
270.001
270.001
270.001
270
270
269.999
269.999
269.999
269.999
269.999
270
270
270
270
270
270
270
270
269.999
269.999
269.999
270
270.001
270.001
270.001
270.001
270
270
269.999
269.999
269.999
269.999
270
270
270
270
270
270
270
269.999
269.999
269.999
269.999
269.999
270
270.001
270.001
270.001
270.001
270
270
270
270
270
270
270
270
270
270
270
270
269.999
269.999
269.999
269.999
269.999
269.999
270
270.001
270.001
270.001
270
270
270
270
270
270
270
270
270.001
270.001
270
270
269.999
269.999
269.999
269.999
269.999
269.999
269.999
270
270.001
270.001
270
270.001
270
270
270
270
270
270
270.001
270.001
270
270
270
269.999
269.999
269.999
269.999
269.999
269.999
269.999
269.999
270.001
270
270.001
270.001
270.001
270
270
270
270
270
270.001
270.001
270
270
270
269.999
269.999
269.999
269.999
269.999
269.999
269.999
270
270.001
270.001
270.001
270.001
270.001
270
270
270
270
270
270
270
270
270
270
269.999
269.999
269.999
269.999
269.999
269.999
269.999
270
270.001
270.001
270.001
270.001
270
270
270
270
270
270
270
270
270
270
270
269.999
269.999
270
270
269.999
269.999
269.999
270
270.001
270.001
270.001
270.001
270
270
270
270
270
270
270
270
270
270
270
270
270
270
270
270
269.999
270
270
270.001
270
270
270
270
270
270
270
269.999
270
270
270
270
270
270
270
270
270
270
270
269.999
270
270
270.002
270.001
269.999
269.997
269.968
269.968
269.969
269.97
269.945
269.961
269.976
269.993
270.088
270.067
270.048
270.032
270.03
270.012
270.024
270.053
270.021
270.029
270.053
270.077
270.004
270.004
270.003
270.001
270.026
270.013
270.009
270.005
270.174
270.05
270.017
270.01
270.211
270.082
270.025
270.016
270.17
270.083
270.043
270.025
270.175
270.082
270.044
270.018
270.232
270.106
270.038
270.02
270.303
270.161
270.048
270.023
270.689
270.542
270.143
270.029
271.448
271.116
270.405
270.037
270.961
270.724
270.361
270.091
270.38
270.368
270.268
270.142
270.026
270.116
270.131
270.105
269.775
269.861
269.933
269.971
269.717
269.674
269.706
269.746
269.871
269.692
269.619
269.595
270.009
269.839
269.724
269.653
270.002
269.941
269.879
269.827
269.954
269.969
269.969
269.961
269.96
269.982
269.999
270.009
269.993
269.998
270.004
270.009
270.006
270.004
270.003
270.002
270.003
270.001
270
270
269.999
269.999
270
270
269.999
269.999
270
270.001
270
270
270
270.001
270
270
270
270
270
270
270
270
270
269.999
269.999
269.999
269.999
269.999
269.999
269.999
269.999
269.999
269.999
269.999
269.999
269.999
269.999
270
269.999
269.999
270
270
270
270
270
270
270
270
270
270
270
270
270
270.001
269.992
269.99
269.984
269.993
270.002
269.998
269.987
269.99
269.999
270.059
270.161
270.47
270.979
270.948
270.717
270.564
270.471
270.163
269.976
269.983
269.997
270.003
270.022
270.019
270.003
269.989
269.99
269.996
270.018
270.08
270.406
270.824
270.565
270.404
270.502
270.938
270.181
269.992
270.015
270.021
270.068
270.032
270.002
269.995
269.995
269.992
269.995
270
270.113
270.5
270.586
270.375
270.269
270.577
271.145
270.173
270.004
270.034
270.08
270.079
270.049
270.027
270.01
270.005
269.994
269.998
270.011
270.198
270.526
270.426
270.253
270.172
270.459
270.702
270.155
270.015
270.105
270.145
270.145
270.172
270.146
270.094
270.038
270.018
270.007
270.061
270.3
270.451
270.233
270.123
270.087
270.123
270.111
270.105
270.023
270.083
270.07
270.13
270.195
270.177
270.154
270.117
270.08
270.074
270.156
270.319
270.167
270.096
270.062
270.036
270.029
270.021
270.067
270.026
270.003
270.022
270.092
270.209
270.238
270.232
270.223
270.204
270.192
270.212
270.154
270.084
270.05
270.033
270.022
270.017
270.012
270.042
270.023
270.001
270.001
270.028
270.146
270.278
270.338
270.364
270.288
270.235
270.182
270.098
270.053
270.029
270.014
270.008
270.008
270.006
270.026
270.018
270.003
270.001
270.008
270.053
270.276
270.501
270.43
270.299
270.213
270.094
270.063
270.031
270.004
269.996
270
270.003
270.006
270.014
270.011
270.004
269.998
270.003
270.017
270.078
270.281
270.32
270.23
270.09
270.052
270.036
270.004
269.987
269.991
269.998
270.005
270.004
270.002
270.003
269.996
269.985
269.988
270.002
270.01
270.02
270.029
270.034
270.034
270.022
270.008
269.986
269.996
269.996
269.996
270.004
270.004
270
270.004
270.001
270.001
269.991
269.989
269.987
269.984
269.988
269.998
270.005
270.009
270.019
270.014
270.014
270.009
269.996
269.999
270.005
270.004
270.004
270.016
270.024
270.016
269.999
269.991
269.993
269.999
270.018
270.08
270.099
270.066
270.043
270.041
270.032
270.005
269.994
269.999
270.001
269.998
270.031
270.079
270.101
270.038
270.01
270.01
270.056
270.163
270.161
270.13
270.1
270.086
270.087
270.065
270.029
270.002
269.994
269.997
269.995
270.027
270.123
270.212
270.261
270.247
270.189
270.145
270.215
270.228
270.18
270.138
270.124
270.118
270.11
270.08
270.044
270.007
269.998
269.994
270.015
270.054
270.087
270.161
270.252
270.304
270.301
270.263
270.213
270.168
270.138
270.128
270.127
270.127
270.129
270.103
270.055
270.012
269.993
270.017
270.019
270.027
270.018
270.025
270.096
270.191
270.232
270.225
270.203
270.17
270.148
270.127
270.104
270.12
270.149
270.12
270.045
269.994
270.043
270.014
270.013
270.013
270.009
270.005
270.023
270.078
270.15
270.204
270.207
270.184
270.149
270.106
270.089
270.133
270.198
270.127
269.999
270.054
270.025
270.016
270.009
269.998
269.991
269.992
270.009
270.04
270.081
270.151
270.176
270.159
270.123
270.089
270.061
270.199
270.272
270.003
269.983
269.987
269.983
269.973
269.964
269.969
269.983
269.998
270.013
270.031
270.053
270.089
270.116
270.108
270.098
270.044
270.143
270.314
270.007
269.793
269.837
269.862
269.882
269.912
269.954
269.992
270.012
270.022
270.028
270.036
270.045
270.055
270.066
270.081
270.046
270.165
270.365
270.015
269.611
269.658
269.719
269.792
269.876
269.954
270.005
270.027
270.032
270.033
270.035
270.039
270.042
270.044
270.065
270.026
270.207
270.476
270.022
269.613
269.627
269.69
269.785
269.888
269.967
270.01
270.026
270.03
270.03
270.032
270.036
270.039
270.043
270.066
270.005
270.275
270.609
270.026
269.781
269.77
269.806
269.872
269.94
269.987
270.009
270.019
270.026
270.034
270.039
270.043
270.044
270.048
270.068
269.987
270.311
270.878
270.033
269.945
269.937
269.947
269.968
269.989
270
270.005
270.014
270.031
270.052
270.068
270.072
270.065
270.06
270.065
269.978
270.369
271.158
270.033
270.013
270.013
270.01
270.007
270.003
269.999
270
270.017
270.054
270.098
270.127
270.128
270.102
270.076
270.052
269.992
270.498
271.31
270.023
270.014
270.014
270.01
270.004
269.997
269.993
270.009
270.061
270.131
270.186
270.21
270.193
270.141
270.091
270.028
270.05
270.715
271.406
270.005
270.003
270.002
270
269.996
269.989
270.002
270.071
270.167
270.23
270.252
270.249
270.218
270.153
270.093
269.994
270.159
270.979
271.495
270.005
270
269.999
269.997
269.99
269.989
270.058
270.184
270.251
270.23
270.193
270.181
270.167
270.123
270.077
269.955
270.324
271.198
271.576
270.004
270.001
270
269.995
269.983
270.009
270.135
270.266
270.232
270.123
270.069
270.076
270.091
270.08
270.046
269.954
270.514
271.333
271.647
270
270.002
270.001
269.992
269.982
270.026
270.166
270.281
270.18
270.043
270.016
270.036
270.054
270.057
269.998
270.108
270.641
271.426
271.706
269.998
270.002
270.001
269.993
269.983
270.015
270.129
270.259
270.185
270.037
270.021
270.026
270.034
270.016
270.047
270.284
270.671
271.506
271.71
269.998
270.001
270.001
269.998
269.988
269.992
270.055
270.194
270.231
270.085
270.032
270.013
269.995
270.015
270.189
270.344
270.688
271.608
271.592
269.996
270
270.001
270.001
269.997
269.986
269.994
270.077
270.213
270.174
270.086
270.041
270.04
270.098
270.268
270.398
270.775
271.744
271.333
269.988
270
270
270.001
270.002
269.995
269.982
269.976
270.069
270.187
270.186
270.144
270.134
270.22
270.355
270.488
270.969
271.888
271.068
269.972
270
270
270
270.003
270.004
269.988
269.952
269.956
270.065
270.19
270.25
270.279
270.361
270.466
270.662
271.287
271.99
271.032
269.964
270
270
269.999
270.004
270.005
269.979
269.95
270.027
270.21
270.353
270.419
270.478
270.54
270.63
270.996
271.674
271.997
271.395
270.052
270
270
269.999
270.006
269.995
269.957
269.997
270.259
270.58
270.728
270.749
270.733
270.693
270.9
271.472
271.974
271.91
272.142
270.459
270
270
270
270.007
269.974
269.965
270.169
270.574
270.817
270.8
270.717
270.666
270.824
271.339
271.865
272.078
271.808
272.748
270.808
270
270
270.001
270.003
269.956
270.05
270.461
270.819
270.818
270.651
270.546
270.672
271.235
271.76
271.975
272.115
271.793
272.53
270.86
270
270
270.001
269.997
269.954
270.202
270.742
270.897
270.735
270.575
270.543
270.876
271.575
271.894
271.961
272.205
271.76
272.23
271.635
270
270
270
269.992
269.966
270.322
270.869
270.881
270.698
270.569
270.566
270.954
271.646
271.896
271.963
272.228
271.795
272.259
271.564
)
;

boundaryField
{
    leftWall
    {
        type            zeroGradient;
    }
    rightWall
    {
        type            zeroGradient;
    }
    lowerWall
    {
        type            zeroGradient;
    }
    atmosphere
    {
        type            zeroGradient;
    }
    defaultFaces
    {
        type            empty;
    }
}


// ************************************************************************* //
